
     Program PHONON v.6.1 (svn rev. 13369) starts on 31Oct2017 at 12:11:45 

     This program is part of the open-source Quantum ESPRESSO suite
     for quantum simulation of materials; please cite
         "P. Giannozzi et al., J. Phys.:Condens. Matter 21 395502 (2009);
          URL http://www.quantum-espresso.org", 
     in publications or presentations arising from this work. More details at
     http://www.quantum-espresso.org/quote

     Parallel version (MPI), running on     4 processors
     R & G space division:  proc/nbgrp/npool/nimage =       4

     Reading data from directory:
     ./aluminium.bcc.save

   Info: using nr1, nr2, nr3 values from input

   Info: using nr1, nr2, nr3 values from input

     IMPORTANT: XC functional enforced from input :
     Exchange-correlation      =  SLA  PW   PBX  PBC ( 1  4  3  4 0 0)
     Any further DFT definition will be discarded
     Please, verify this is what you really want

               file Al.pbe-n-kjpaw_psl.1.0.0.UPF: wavefunction(s)  3S 3P renormalized

     Parallelization info
     --------------------
     sticks:   dense  smooth     PW     G-vecs:    dense   smooth      PW
     Min          62      62     22                  622      622     132
     Max          63      63     23                  624      624     133
     Sum         249     249     91                 2491     2491     531



     Dynamical matrices for (12,12,12)  uniform grid of q-points
     (  72q-points):
       N         xq(1)         xq(2)         xq(3) 
       1   0.000000000   0.000000000   0.000000000
       2   0.000000000  -0.083333333   0.083333333
       3   0.000000000  -0.166666667   0.166666667
       4   0.000000000  -0.250000000   0.250000000
       5   0.000000000  -0.333333333   0.333333333
       6   0.000000000  -0.416666667   0.416666667
       7   0.000000000   0.500000000  -0.500000000
       8  -0.083333333  -0.083333333   0.166666667
       9  -0.083333333  -0.166666667   0.250000000
      10  -0.083333333  -0.250000000   0.333333333
      11  -0.083333333  -0.333333333   0.416666667
      12  -0.083333333   0.583333333  -0.500000000
      13  -0.166666667  -0.166666667   0.333333333
      14  -0.166666667  -0.250000000   0.416666667
      15  -0.166666667   0.666666667  -0.500000000
      16  -0.166666667   0.583333333  -0.416666667
      17  -0.250000000   0.750000000  -0.500000000
      18  -0.250000000   0.666666667  -0.416666667
      19  -0.333333333   0.666666667  -0.333333333
      20   0.000000000   0.000000000   0.166666667
      21   0.000000000  -0.083333333   0.250000000
      22   0.000000000  -0.166666667   0.333333333
      23   0.000000000  -0.250000000   0.416666667
      24   0.000000000  -0.333333333   0.500000000
      25   0.000000000   0.583333333  -0.416666667
      26  -0.083333333  -0.083333333   0.333333333
      27  -0.083333333  -0.166666667   0.416666667
      28  -0.083333333  -0.250000000   0.500000000
      29  -0.083333333   0.666666667  -0.416666667
      30  -0.166666667   0.166666667   0.166666667
      31  -0.166666667  -0.166666667   0.500000000
      32  -0.166666667   0.750000000  -0.416666667
      33  -0.166666667   0.666666667  -0.333333333
      34  -0.250000000   0.250000000   0.166666667
      35  -0.250000000   0.750000000  -0.333333333
      36  -0.333333333   0.333333333   0.166666667
      37  -0.333333333   0.250000000   0.250000000
      38   0.583333333  -0.583333333   0.166666667
      39   0.583333333  -0.666666667   0.250000000
      40   0.500000000  -0.500000000   0.166666667
      41   0.500000000  -0.583333333   0.250000000
      42   0.500000000  -0.666666667   0.333333333
      43   0.416666667  -0.583333333   0.333333333
      44   0.000000000   0.000000000   0.333333333
      45   0.000000000  -0.083333333   0.416666667
      46   0.000000000  -0.166666667   0.500000000
      47   0.000000000  -0.250000000   0.583333333
      48   0.000000000   0.666666667  -0.333333333
      49  -0.083333333  -0.083333333   0.500000000
      50  -0.083333333  -0.166666667   0.583333333
      51  -0.083333333   0.750000000  -0.333333333
      52  -0.166666667   0.833333333  -0.333333333
      53  -0.166666667   0.750000000  -0.250000000
      54   0.666666667  -0.666666667   0.333333333
      55   0.583333333  -0.583333333   0.333333333
      56   0.500000000  -0.500000000   0.333333333
      57   0.500000000  -0.583333333   0.416666667
      58   0.000000000   0.000000000   0.500000000
      59   0.000000000  -0.083333333   0.583333333
      60   0.000000000  -0.166666667   0.666666667
      61   0.000000000   0.750000000  -0.250000000
      62  -0.083333333  -0.083333333   0.666666667
      63  -0.083333333   0.833333333  -0.250000000
      64  -0.166666667   0.833333333  -0.166666667
      65   0.500000000  -0.500000000   0.500000000
      66   0.000000000   0.000000000   0.666666667
      67   0.000000000  -0.083333333   0.750000000
      68   0.000000000   0.833333333  -0.166666667
      69  -0.083333333   0.916666667  -0.166666667
      70   0.000000000   0.000000000   0.833333333
      71   0.000000000   0.916666667  -0.083333333
      72   0.000000000   0.000000000  -1.000000000

     Calculation of q =    0.0000000   0.0000000   0.0000000

                                                                                

     bravais-lattice index     =            3
     lattice parameter (alat)  =       6.1240  a.u.
     unit-cell volume          =     114.8353 (a.u.)^3
     number of atoms/cell      =            1
     number of atomic types    =            1
     kinetic-energy cut-off    =      30.0000  Ry
     charge density cut-off    =     120.0000  Ry
     convergence threshold     =      1.0E-12
     beta                      =       0.7000
     number of iterations used =            4
     Exchange-correlation      =  SLA  PW   PBX  PBC ( 1  4  3  4 0 0)


     celldm(1)=    6.12400  celldm(2)=    0.00000  celldm(3)=    0.00000
     celldm(4)=    0.00000  celldm(5)=    0.00000  celldm(6)=    0.00000

     crystal axes: (cart. coord. in units of alat)
               a(1) = (  0.5000  0.5000  0.5000 )  
               a(2) = ( -0.5000  0.5000  0.5000 )  
               a(3) = ( -0.5000 -0.5000  0.5000 )  

     reciprocal axes: (cart. coord. in units 2 pi/alat)
               b(1) = (  1.0000  0.0000  1.0000 )  
               b(2) = ( -1.0000  1.0000  0.0000 )  
               b(3) = (  0.0000 -1.0000  1.0000 )  


     Atoms inside the unit cell: 

     Cartesian axes

     site n.  atom      mass           positions (alat units)
        1     Al  26.9820   tau(    1) = (    0.00000    0.00000    0.00000  )

     Computing dynamical matrix for 
                    q = (   0.0000000   0.0000000   0.0000000 )

     49 Sym.Ops. (with q -> -q+G )


     G cutoff =  113.9966  (    623 G-vectors)     FFT grid: ( 20, 20, 20)

     number of k points=    68  gaussian smearing, width (Ry)=  0.0500

     PseudoPot. # 1 for Al read from file:
     /home/max/quantum_espresso/qe-6.1/pseudo/Al.pbe-n-kjpaw_psl.1.0.0.UPF
     MD5 check sum: dd5adf945272da8132fc805c9e56c2d6
     Pseudo is Projector augmented-wave + core cor, Zval =  3.0
     Generated using "atomic" code by A. Dal Corso  v.5.1
     Shape of augmentation charge: PSQ
     Using radial grid of 1135 points,  6 beta functions with: 
                l(1) =   0
                l(2) =   0
                l(3) =   1
                l(4) =   1
                l(5) =   2
                l(6) =   2
     Q(r) pseudized with 0 coefficients 


     Mode symmetry, O_h (m-3m)  point group:


     Atomic displacements:
     There are   1 irreducible representations

     Representation     1      3 modes -T_1u G_15  G_4-  To be done



     Alpha used in Ewald sum =   1.4000
     PHONON       :     1.21s CPU         1.24s WALL



     Representation #  1 modes #   1  2  3

     Self-consistent Calculation

     Pert. #  1: Fermi energy shift (Ry) =    -2.1024E-24    -1.5046E-36
     Pert. #  2: Fermi energy shift (Ry) =    -1.6888E-24     3.2600E-36
     Pert. #  3: Fermi energy shift (Ry) =     6.8932E-26    -7.5232E-37

      iter #   1 total cpu time :     2.8 secs   av.it.:   3.5
      thresh= 1.000E-02 alpha_mix =  0.700 |ddv_scf|^2 =  7.755E-08

     Pert. #  1: Fermi energy shift (Ry) =    -1.1029E-24    -1.2245E-39
     Pert. #  2: Fermi energy shift (Ry) =    -1.3959E-24    -1.5918E-39
     Pert. #  3: Fermi energy shift (Ry) =     2.2403E-25     3.6734E-40

      iter #   2 total cpu time :     4.6 secs   av.it.:   6.4
      thresh= 2.785E-05 alpha_mix =  0.700 |ddv_scf|^2 =  4.879E-09

     Pert. #  1: Fermi energy shift (Ry) =    -1.8956E-24     9.2601E-40
     Pert. #  2: Fermi energy shift (Ry) =     1.8267E-24    -5.2423E-40
     Pert. #  3: Fermi energy shift (Ry) =    -1.0340E-25    -1.3775E-40

      iter #   3 total cpu time :     6.3 secs   av.it.:   6.4
      thresh= 6.985E-06 alpha_mix =  0.700 |ddv_scf|^2 =  1.163E-10

     Pert. #  1: Fermi energy shift (Ry) =     6.8932E-26    -9.6045E-40
     Pert. #  2: Fermi energy shift (Ry) =     6.8932E-26    -2.4872E-41
     Pert. #  3: Fermi energy shift (Ry) =     4.9975E-25    -2.5255E-40

      iter #   4 total cpu time :     8.0 secs   av.it.:   6.2
      thresh= 1.079E-06 alpha_mix =  0.700 |ddv_scf|^2 =  1.914E-13

     End of self-consistent calculation

     Convergence has been achieved 

     Number of q in the star =    1
     List of q in the star:
          1   0.000000000   0.000000000   0.000000000

     Diagonalizing the dynamical matrix

     q = (    0.000000000   0.000000000   0.000000000 ) 

 **************************************************************************
     freq (    1) =      -0.121776 [THz] =      -4.062025 [cm-1]
     freq (    2) =      -0.121776 [THz] =      -4.062025 [cm-1]
     freq (    3) =      -0.121776 [THz] =      -4.062025 [cm-1]
 **************************************************************************

     Mode symmetry, O_h (m-3m)  point group:

     freq (  1 -  3) =         -4.1  [cm-1]   --> T_1u G_15  G_4- I  

     Calculation of q =    0.0000000  -0.0833333   0.0833333

   Info: using nr1, nr2, nr3 values from input

   Info: using nr1, nr2, nr3 values from input

     Parallelization info
     --------------------
     sticks:   dense  smooth     PW     G-vecs:    dense   smooth      PW
     Min          62      62     22                  622      622     138
     Max          63      63     23                  624      624     139
     Sum         249     249     91                 2491     2491     555



     bravais-lattice index     =            3
     lattice parameter (alat)  =       6.1240  a.u.
     unit-cell volume          =     114.8353 (a.u.)^3
     number of atoms/cell      =            1
     number of atomic types    =            1
     number of electrons       =         3.00
     number of Kohn-Sham states=            6
     kinetic-energy cutoff     =      30.0000  Ry
     charge density cutoff     =     120.0000  Ry
     Exchange-correlation      =  SLA  PW   PBX  PBC ( 1  4  3  4 0 0)

     celldm(1)=   6.124000  celldm(2)=   0.000000  celldm(3)=   0.000000
     celldm(4)=   0.000000  celldm(5)=   0.000000  celldm(6)=   0.000000

     crystal axes: (cart. coord. in units of alat)
               a(1) = (   0.500000   0.500000   0.500000 )  
               a(2) = (  -0.500000   0.500000   0.500000 )  
               a(3) = (  -0.500000  -0.500000   0.500000 )  

     reciprocal axes: (cart. coord. in units 2 pi/alat)
               b(1) = (  1.000000  0.000000  1.000000 )  
               b(2) = ( -1.000000  1.000000  0.000000 )  
               b(3) = (  0.000000 -1.000000  1.000000 )  


     PseudoPot. # 1 for Al read from file:
     /home/max/quantum_espresso/qe-6.1/pseudo/Al.pbe-n-kjpaw_psl.1.0.0.UPF
     MD5 check sum: dd5adf945272da8132fc805c9e56c2d6
     Pseudo is Projector augmented-wave + core cor, Zval =  3.0
     Generated using "atomic" code by A. Dal Corso  v.5.1
     Shape of augmentation charge: PSQ
     Using radial grid of 1135 points,  6 beta functions with: 
                l(1) =   0
                l(2) =   0
                l(3) =   1
                l(4) =   1
                l(5) =   2
                l(6) =   2
     Q(r) pseudized with 0 coefficients 


     atomic species   valence    mass     pseudopotential
        Al             3.00    26.98200     Al( 1.00)

     48 Sym. Ops., with inversion, found



   Cartesian axes

     site n.     atom                  positions (alat units)
         1           Al  tau(   1) = (   0.0000000   0.0000000   0.0000000  )

     number of k points=  1008  gaussian smearing, width (Ry)=  0.0500

     Number of k-points >= 100: set verbosity='high' to print them.

     Dense  grid:     2491 G-vectors     FFT dimensions: (  20,  20,  20)

     Estimated max dynamical RAM per process >       0.32MB

     Estimated total allocated dynamical RAM >       1.26MB

     The potential is recalculated from file :
     ./_ph0/aluminium.bcc.save/charge-density.dat

     Starting wfc are    4 atomic +    2 random wfc
     Checking if some PAW data can be deallocated... 

     Band Structure Calculation
     Davidson diagonalization with overlap

     ethr =  3.33E-10,  avg # of iterations = 15.9

     total cpu time spent up to now is        6.5 secs

     End of band structure calculation

     Number of k-points >= 100: set verbosity='high' to print the bands.

     the Fermi energy is     7.5871 ev

     Writing output data file aluminium.bcc.save

                                                                                

     bravais-lattice index     =            3
     lattice parameter (alat)  =       6.1240  a.u.
     unit-cell volume          =     114.8353 (a.u.)^3
     number of atoms/cell      =            1
     number of atomic types    =            1
     kinetic-energy cut-off    =      30.0000  Ry
     charge density cut-off    =     120.0000  Ry
     convergence threshold     =      1.0E-12
     beta                      =       0.7000
     number of iterations used =            4
     Exchange-correlation      =  SLA  PW   PBX  PBC ( 1  4  3  4 0 0)


     celldm(1)=    6.12400  celldm(2)=    0.00000  celldm(3)=    0.00000
     celldm(4)=    0.00000  celldm(5)=    0.00000  celldm(6)=    0.00000

     crystal axes: (cart. coord. in units of alat)
               a(1) = (  0.5000  0.5000  0.5000 )  
               a(2) = ( -0.5000  0.5000  0.5000 )  
               a(3) = ( -0.5000 -0.5000  0.5000 )  

     reciprocal axes: (cart. coord. in units 2 pi/alat)
               b(1) = (  1.0000  0.0000  1.0000 )  
               b(2) = ( -1.0000  1.0000  0.0000 )  
               b(3) = (  0.0000 -1.0000  1.0000 )  


     Atoms inside the unit cell: 

     Cartesian axes

     site n.  atom      mass           positions (alat units)
        1     Al  26.9820   tau(    1) = (    0.00000    0.00000    0.00000  )

     Computing dynamical matrix for 
                    q = (   0.0000000  -0.0833333   0.0833333 )

      4 Sym.Ops. (no q -> -q+G )


     G cutoff =  113.9966  (    623 G-vectors)     FFT grid: ( 20, 20, 20)

     number of k points=  1008  gaussian smearing, width (Ry)=  0.0500

     PseudoPot. # 1 for Al read from file:
     /home/max/quantum_espresso/qe-6.1/pseudo/Al.pbe-n-kjpaw_psl.1.0.0.UPF
     MD5 check sum: dd5adf945272da8132fc805c9e56c2d6
     Pseudo is Projector augmented-wave + core cor, Zval =  3.0
     Generated using "atomic" code by A. Dal Corso  v.5.1
     Shape of augmentation charge: PSQ
     Using radial grid of 1135 points,  6 beta functions with: 
                l(1) =   0
                l(2) =   0
                l(3) =   1
                l(4) =   1
                l(5) =   2
                l(6) =   2
     Q(r) pseudized with 0 coefficients 


     Mode symmetry, C_2v (mm2)  point group:


     Atomic displacements:
     There are   3 irreducible representations

     Representation     1      1 modes -A_1  D_1  S_1  To be done

     Representation     2      1 modes -B_1  D_3  S_3  To be done

     Representation     3      1 modes -B_2  D_4  S_4  To be done



     Alpha used in Ewald sum =   1.4000
     PHONON       :    14.95s CPU        16.12s WALL



     Representation #  1 mode #   1

     Self-consistent Calculation

      iter #   1 total cpu time :    17.2 secs   av.it.:   4.5
      thresh= 1.000E-02 alpha_mix =  0.700 |ddv_scf|^2 =  6.081E+00

      iter #   2 total cpu time :    18.3 secs   av.it.:   6.7
      thresh= 1.000E-02 alpha_mix =  0.700 |ddv_scf|^2 =  2.077E+04

      iter #   3 total cpu time :    19.3 secs   av.it.:   6.6
      thresh= 1.000E-02 alpha_mix =  0.700 |ddv_scf|^2 =  7.102E-01

      iter #   4 total cpu time :    20.2 secs   av.it.:   3.1
      thresh= 1.000E-02 alpha_mix =  0.700 |ddv_scf|^2 =  3.951E-06

      iter #   5 total cpu time :    21.1 secs   av.it.:   4.8
      thresh= 1.988E-04 alpha_mix =  0.700 |ddv_scf|^2 =  7.320E-06

      iter #   6 total cpu time :    21.9 secs   av.it.:   1.7
      thresh= 2.706E-04 alpha_mix =  0.700 |ddv_scf|^2 =  9.767E-08

      iter #   7 total cpu time :    22.8 secs   av.it.:   4.0
      thresh= 3.125E-05 alpha_mix =  0.700 |ddv_scf|^2 =  4.598E-09

      iter #   8 total cpu time :    23.6 secs   av.it.:   3.9
      thresh= 6.781E-06 alpha_mix =  0.700 |ddv_scf|^2 =  2.041E-11

      iter #   9 total cpu time :    24.5 secs   av.it.:   4.5
      thresh= 4.517E-07 alpha_mix =  0.700 |ddv_scf|^2 =  2.900E-13

     End of self-consistent calculation

     Convergence has been achieved 


     Representation #  2 mode #   2

     Self-consistent Calculation

      iter #   1 total cpu time :    25.8 secs   av.it.:   3.4
      thresh= 1.000E-02 alpha_mix =  0.700 |ddv_scf|^2 =  6.948E-07

      iter #   2 total cpu time :    26.9 secs   av.it.:   5.8
      thresh= 8.335E-05 alpha_mix =  0.700 |ddv_scf|^2 =  4.379E-08

      iter #   3 total cpu time :    27.9 secs   av.it.:   5.8
      thresh= 2.093E-05 alpha_mix =  0.700 |ddv_scf|^2 =  1.050E-09

      iter #   4 total cpu time :    28.9 secs   av.it.:   5.6
      thresh= 3.240E-06 alpha_mix =  0.700 |ddv_scf|^2 =  1.857E-12

      iter #   5 total cpu time :    30.0 secs   av.it.:   6.3
      thresh= 1.363E-07 alpha_mix =  0.700 |ddv_scf|^2 =  4.458E-14

     End of self-consistent calculation

     Convergence has been achieved 


     Representation #  3 mode #   3

     Self-consistent Calculation

      iter #   1 total cpu time :    31.1 secs   av.it.:   3.3
      thresh= 1.000E-02 alpha_mix =  0.700 |ddv_scf|^2 =  6.817E-07

      iter #   2 total cpu time :    32.2 secs   av.it.:   5.7
      thresh= 8.257E-05 alpha_mix =  0.700 |ddv_scf|^2 =  4.339E-08

      iter #   3 total cpu time :    33.2 secs   av.it.:   5.8
      thresh= 2.083E-05 alpha_mix =  0.700 |ddv_scf|^2 =  1.052E-09

      iter #   4 total cpu time :    34.1 secs   av.it.:   5.5
      thresh= 3.244E-06 alpha_mix =  0.700 |ddv_scf|^2 =  3.024E-12

      iter #   5 total cpu time :    35.1 secs   av.it.:   6.1
      thresh= 1.739E-07 alpha_mix =  0.700 |ddv_scf|^2 =  7.410E-14

     End of self-consistent calculation

     Convergence has been achieved 

     Number of q in the star =   12
     List of q in the star:
          1   0.000000000  -0.083333333   0.083333333
          2  -0.083333333   0.000000000   0.083333333
          3   0.000000000   0.083333333   0.083333333
          4   0.083333333   0.000000000   0.083333333
          5   0.083333333  -0.083333333   0.000000000
          6   0.083333333   0.083333333   0.000000000
          7   0.000000000  -0.083333333  -0.083333333
          8  -0.083333333   0.083333333   0.000000000
          9   0.083333333   0.000000000  -0.083333333
         10  -0.083333333   0.000000000  -0.083333333
         11   0.000000000   0.083333333  -0.083333333
         12  -0.083333333  -0.083333333   0.000000000

     Diagonalizing the dynamical matrix

     q = (    0.000000000  -0.083333333   0.083333333 ) 

 **************************************************************************
     freq (    1) =      -0.926608 [THz] =     -30.908325 [cm-1]
     freq (    2) =       1.407874 [THz] =      46.961637 [cm-1]
     freq (    3) =       2.309688 [THz] =      77.042891 [cm-1]
 **************************************************************************

     Mode symmetry, C_2v (mm2)  point group:

     freq (  1 -  1) =        -30.9  [cm-1]   --> B_1  D_3  S_3      
     freq (  2 -  2) =         47.0  [cm-1]   --> B_2  D_4  S_4      
     freq (  3 -  3) =         77.0  [cm-1]   --> A_1  D_1  S_1      

     Calculation of q =    0.0000000  -0.1666667   0.1666667

   Info: using nr1, nr2, nr3 values from input

   Info: using nr1, nr2, nr3 values from input

     Parallelization info
     --------------------
     sticks:   dense  smooth     PW     G-vecs:    dense   smooth      PW
     Min          62      62     23                  622      622     150
     Max          63      63     24                  624      624     151
     Sum         249     249     95                 2491     2491     603



     bravais-lattice index     =            3
     lattice parameter (alat)  =       6.1240  a.u.
     unit-cell volume          =     114.8353 (a.u.)^3
     number of atoms/cell      =            1
     number of atomic types    =            1
     number of electrons       =         3.00
     number of Kohn-Sham states=            6
     kinetic-energy cutoff     =      30.0000  Ry
     charge density cutoff     =     120.0000  Ry
     Exchange-correlation      =  SLA  PW   PBX  PBC ( 1  4  3  4 0 0)

     celldm(1)=   6.124000  celldm(2)=   0.000000  celldm(3)=   0.000000
     celldm(4)=   0.000000  celldm(5)=   0.000000  celldm(6)=   0.000000

     crystal axes: (cart. coord. in units of alat)
               a(1) = (   0.500000   0.500000   0.500000 )  
               a(2) = (  -0.500000   0.500000   0.500000 )  
               a(3) = (  -0.500000  -0.500000   0.500000 )  

     reciprocal axes: (cart. coord. in units 2 pi/alat)
               b(1) = (  1.000000  0.000000  1.000000 )  
               b(2) = ( -1.000000  1.000000  0.000000 )  
               b(3) = (  0.000000 -1.000000  1.000000 )  


     PseudoPot. # 1 for Al read from file:
     /home/max/quantum_espresso/qe-6.1/pseudo/Al.pbe-n-kjpaw_psl.1.0.0.UPF
     MD5 check sum: dd5adf945272da8132fc805c9e56c2d6
     Pseudo is Projector augmented-wave + core cor, Zval =  3.0
     Generated using "atomic" code by A. Dal Corso  v.5.1
     Shape of augmentation charge: PSQ
     Using radial grid of 1135 points,  6 beta functions with: 
                l(1) =   0
                l(2) =   0
                l(3) =   1
                l(4) =   1
                l(5) =   2
                l(6) =   2
     Q(r) pseudized with 0 coefficients 


     atomic species   valence    mass     pseudopotential
        Al             3.00    26.98200     Al( 1.00)

     48 Sym. Ops., with inversion, found



   Cartesian axes

     site n.     atom                  positions (alat units)
         1           Al  tau(   1) = (   0.0000000   0.0000000   0.0000000  )

     number of k points=  1008  gaussian smearing, width (Ry)=  0.0500

     Number of k-points >= 100: set verbosity='high' to print them.

     Dense  grid:     2491 G-vectors     FFT dimensions: (  20,  20,  20)

     Estimated max dynamical RAM per process >       0.32MB

     Estimated total allocated dynamical RAM >       1.26MB

     The potential is recalculated from file :
     ./_ph0/aluminium.bcc.save/charge-density.dat

     Starting wfc are    4 atomic +    2 random wfc
     Checking if some PAW data can be deallocated... 

     Band Structure Calculation
     Davidson diagonalization with overlap

     ethr =  3.33E-10,  avg # of iterations = 16.0

     total cpu time spent up to now is       13.7 secs

     End of band structure calculation

     Number of k-points >= 100: set verbosity='high' to print the bands.

     the Fermi energy is     7.5871 ev

     Writing output data file aluminium.bcc.save

                                                                                

     bravais-lattice index     =            3
     lattice parameter (alat)  =       6.1240  a.u.
     unit-cell volume          =     114.8353 (a.u.)^3
     number of atoms/cell      =            1
     number of atomic types    =            1
     kinetic-energy cut-off    =      30.0000  Ry
     charge density cut-off    =     120.0000  Ry
     convergence threshold     =      1.0E-12
     beta                      =       0.7000
     number of iterations used =            4
     Exchange-correlation      =  SLA  PW   PBX  PBC ( 1  4  3  4 0 0)


     celldm(1)=    6.12400  celldm(2)=    0.00000  celldm(3)=    0.00000
     celldm(4)=    0.00000  celldm(5)=    0.00000  celldm(6)=    0.00000

     crystal axes: (cart. coord. in units of alat)
               a(1) = (  0.5000  0.5000  0.5000 )  
               a(2) = ( -0.5000  0.5000  0.5000 )  
               a(3) = ( -0.5000 -0.5000  0.5000 )  

     reciprocal axes: (cart. coord. in units 2 pi/alat)
               b(1) = (  1.0000  0.0000  1.0000 )  
               b(2) = ( -1.0000  1.0000  0.0000 )  
               b(3) = (  0.0000 -1.0000  1.0000 )  


     Atoms inside the unit cell: 

     Cartesian axes

     site n.  atom      mass           positions (alat units)
        1     Al  26.9820   tau(    1) = (    0.00000    0.00000    0.00000  )

     Computing dynamical matrix for 
                    q = (   0.0000000  -0.1666667   0.1666667 )

      4 Sym.Ops. (no q -> -q+G )


     G cutoff =  113.9966  (    623 G-vectors)     FFT grid: ( 20, 20, 20)

     number of k points=  1008  gaussian smearing, width (Ry)=  0.0500

     PseudoPot. # 1 for Al read from file:
     /home/max/quantum_espresso/qe-6.1/pseudo/Al.pbe-n-kjpaw_psl.1.0.0.UPF
     MD5 check sum: dd5adf945272da8132fc805c9e56c2d6
     Pseudo is Projector augmented-wave + core cor, Zval =  3.0
     Generated using "atomic" code by A. Dal Corso  v.5.1
     Shape of augmentation charge: PSQ
     Using radial grid of 1135 points,  6 beta functions with: 
                l(1) =   0
                l(2) =   0
                l(3) =   1
                l(4) =   1
                l(5) =   2
                l(6) =   2
     Q(r) pseudized with 0 coefficients 


     Mode symmetry, C_2v (mm2)  point group:


     Atomic displacements:
     There are   3 irreducible representations

     Representation     1      1 modes -A_1  D_1  S_1  To be done

     Representation     2      1 modes -B_1  D_3  S_3  To be done

     Representation     3      1 modes -B_2  D_4  S_4  To be done



     Alpha used in Ewald sum =   1.4000
     PHONON       :    40.17s CPU        43.29s WALL



     Representation #  1 mode #   1

     Self-consistent Calculation

      iter #   1 total cpu time :    44.4 secs   av.it.:   4.4
      thresh= 1.000E-02 alpha_mix =  0.700 |ddv_scf|^2 =  8.613E-02

      iter #   2 total cpu time :    45.4 secs   av.it.:   5.8
      thresh= 1.000E-02 alpha_mix =  0.700 |ddv_scf|^2 =  1.728E+01

      iter #   3 total cpu time :    46.3 secs   av.it.:   5.8
      thresh= 1.000E-02 alpha_mix =  0.700 |ddv_scf|^2 =  3.640E-05

      iter #   4 total cpu time :    47.2 secs   av.it.:   4.3
      thresh= 6.033E-04 alpha_mix =  0.700 |ddv_scf|^2 =  7.700E-09

      iter #   5 total cpu time :    48.2 secs   av.it.:   6.0
      thresh= 8.775E-06 alpha_mix =  0.700 |ddv_scf|^2 =  1.123E-08

      iter #   6 total cpu time :    49.1 secs   av.it.:   3.6
      thresh= 1.060E-05 alpha_mix =  0.700 |ddv_scf|^2 =  1.369E-08

      iter #   7 total cpu time :    50.0 secs   av.it.:   3.7
      thresh= 1.170E-05 alpha_mix =  0.700 |ddv_scf|^2 =  5.003E-12

      iter #   8 total cpu time :    51.0 secs   av.it.:   5.8
      thresh= 2.237E-07 alpha_mix =  0.700 |ddv_scf|^2 =  1.443E-13

     End of self-consistent calculation

     Convergence has been achieved 


     Representation #  2 mode #   2

     Self-consistent Calculation

      iter #   1 total cpu time :    52.1 secs   av.it.:   3.4
      thresh= 1.000E-02 alpha_mix =  0.700 |ddv_scf|^2 =  6.871E-07

      iter #   2 total cpu time :    53.1 secs   av.it.:   5.8
      thresh= 8.289E-05 alpha_mix =  0.700 |ddv_scf|^2 =  4.410E-08

      iter #   3 total cpu time :    54.0 secs   av.it.:   5.9
      thresh= 2.100E-05 alpha_mix =  0.700 |ddv_scf|^2 =  1.083E-09

      iter #   4 total cpu time :    55.0 secs   av.it.:   5.5
      thresh= 3.291E-06 alpha_mix =  0.700 |ddv_scf|^2 =  2.840E-12

      iter #   5 total cpu time :    56.0 secs   av.it.:   6.3
      thresh= 1.685E-07 alpha_mix =  0.700 |ddv_scf|^2 =  3.551E-14

     End of self-consistent calculation

     Convergence has been achieved 


     Representation #  3 mode #   3

     Self-consistent Calculation

      iter #   1 total cpu time :    57.1 secs   av.it.:   3.4
      thresh= 1.000E-02 alpha_mix =  0.700 |ddv_scf|^2 =  6.382E-07

      iter #   2 total cpu time :    58.1 secs   av.it.:   5.8
      thresh= 7.989E-05 alpha_mix =  0.700 |ddv_scf|^2 =  4.232E-08

      iter #   3 total cpu time :    59.0 secs   av.it.:   5.8
      thresh= 2.057E-05 alpha_mix =  0.700 |ddv_scf|^2 =  1.069E-09

      iter #   4 total cpu time :    60.0 secs   av.it.:   5.5
      thresh= 3.270E-06 alpha_mix =  0.700 |ddv_scf|^2 =  6.765E-12

      iter #   5 total cpu time :    61.0 secs   av.it.:   5.9
      thresh= 2.601E-07 alpha_mix =  0.700 |ddv_scf|^2 =  8.237E-14

     End of self-consistent calculation

     Convergence has been achieved 

     Number of q in the star =   12
     List of q in the star:
          1   0.000000000  -0.166666667   0.166666667
          2  -0.166666667   0.000000000   0.166666667
          3   0.000000000   0.166666667   0.166666667
          4   0.166666667   0.000000000   0.166666667
          5   0.166666667  -0.166666667   0.000000000
          6   0.166666667   0.166666667   0.000000000
          7   0.000000000  -0.166666667  -0.166666667
          8  -0.166666667   0.166666667   0.000000000
          9   0.166666667   0.000000000  -0.166666667
         10  -0.166666667   0.000000000  -0.166666667
         11   0.000000000   0.166666667  -0.166666667
         12  -0.166666667  -0.166666667   0.000000000

     Diagonalizing the dynamical matrix

     q = (    0.000000000  -0.166666667   0.166666667 ) 

 **************************************************************************
     freq (    1) =      -1.882804 [THz] =     -62.803572 [cm-1]
     freq (    2) =       2.732213 [THz] =      91.136812 [cm-1]
     freq (    3) =       4.517913 [THz] =     150.701343 [cm-1]
 **************************************************************************

     Mode symmetry, C_2v (mm2)  point group:

     freq (  1 -  1) =        -62.8  [cm-1]   --> B_1  D_3  S_3      
     freq (  2 -  2) =         91.1  [cm-1]   --> B_2  D_4  S_4      
     freq (  3 -  3) =        150.7  [cm-1]   --> A_1  D_1  S_1      

     Calculation of q =    0.0000000  -0.2500000   0.2500000

   Info: using nr1, nr2, nr3 values from input

   Info: using nr1, nr2, nr3 values from input

     Parallelization info
     --------------------
     sticks:   dense  smooth     PW     G-vecs:    dense   smooth      PW
     Min          62      62     23                  622      622     150
     Max          63      63     24                  624      624     151
     Sum         249     249     95                 2491     2491     603



     bravais-lattice index     =            3
     lattice parameter (alat)  =       6.1240  a.u.
     unit-cell volume          =     114.8353 (a.u.)^3
     number of atoms/cell      =            1
     number of atomic types    =            1
     number of electrons       =         3.00
     number of Kohn-Sham states=            6
     kinetic-energy cutoff     =      30.0000  Ry
     charge density cutoff     =     120.0000  Ry
     Exchange-correlation      =  SLA  PW   PBX  PBC ( 1  4  3  4 0 0)

     celldm(1)=   6.124000  celldm(2)=   0.000000  celldm(3)=   0.000000
     celldm(4)=   0.000000  celldm(5)=   0.000000  celldm(6)=   0.000000

     crystal axes: (cart. coord. in units of alat)
               a(1) = (   0.500000   0.500000   0.500000 )  
               a(2) = (  -0.500000   0.500000   0.500000 )  
               a(3) = (  -0.500000  -0.500000   0.500000 )  

     reciprocal axes: (cart. coord. in units 2 pi/alat)
               b(1) = (  1.000000  0.000000  1.000000 )  
               b(2) = ( -1.000000  1.000000  0.000000 )  
               b(3) = (  0.000000 -1.000000  1.000000 )  


     PseudoPot. # 1 for Al read from file:
     /home/max/quantum_espresso/qe-6.1/pseudo/Al.pbe-n-kjpaw_psl.1.0.0.UPF
     MD5 check sum: dd5adf945272da8132fc805c9e56c2d6
     Pseudo is Projector augmented-wave + core cor, Zval =  3.0
     Generated using "atomic" code by A. Dal Corso  v.5.1
     Shape of augmentation charge: PSQ
     Using radial grid of 1135 points,  6 beta functions with: 
                l(1) =   0
                l(2) =   0
                l(3) =   1
                l(4) =   1
                l(5) =   2
                l(6) =   2
     Q(r) pseudized with 0 coefficients 


     atomic species   valence    mass     pseudopotential
        Al             3.00    26.98200     Al( 1.00)

     48 Sym. Ops., with inversion, found



   Cartesian axes

     site n.     atom                  positions (alat units)
         1           Al  tau(   1) = (   0.0000000   0.0000000   0.0000000  )

     number of k points=  1008  gaussian smearing, width (Ry)=  0.0500

     Number of k-points >= 100: set verbosity='high' to print them.

     Dense  grid:     2491 G-vectors     FFT dimensions: (  20,  20,  20)

     Estimated max dynamical RAM per process >       0.32MB

     Estimated total allocated dynamical RAM >       1.26MB

     The potential is recalculated from file :
     ./_ph0/aluminium.bcc.save/charge-density.dat

     Starting wfc are    4 atomic +    2 random wfc
     Checking if some PAW data can be deallocated... 

     Band Structure Calculation
     Davidson diagonalization with overlap

     ethr =  3.33E-10,  avg # of iterations = 16.0

     total cpu time spent up to now is       20.9 secs

     End of band structure calculation

     Number of k-points >= 100: set verbosity='high' to print the bands.

     the Fermi energy is     7.5871 ev

     Writing output data file aluminium.bcc.save

                                                                                

     bravais-lattice index     =            3
     lattice parameter (alat)  =       6.1240  a.u.
     unit-cell volume          =     114.8353 (a.u.)^3
     number of atoms/cell      =            1
     number of atomic types    =            1
     kinetic-energy cut-off    =      30.0000  Ry
     charge density cut-off    =     120.0000  Ry
     convergence threshold     =      1.0E-12
     beta                      =       0.7000
     number of iterations used =            4
     Exchange-correlation      =  SLA  PW   PBX  PBC ( 1  4  3  4 0 0)


     celldm(1)=    6.12400  celldm(2)=    0.00000  celldm(3)=    0.00000
     celldm(4)=    0.00000  celldm(5)=    0.00000  celldm(6)=    0.00000

     crystal axes: (cart. coord. in units of alat)
               a(1) = (  0.5000  0.5000  0.5000 )  
               a(2) = ( -0.5000  0.5000  0.5000 )  
               a(3) = ( -0.5000 -0.5000  0.5000 )  

     reciprocal axes: (cart. coord. in units 2 pi/alat)
               b(1) = (  1.0000  0.0000  1.0000 )  
               b(2) = ( -1.0000  1.0000  0.0000 )  
               b(3) = (  0.0000 -1.0000  1.0000 )  


     Atoms inside the unit cell: 

     Cartesian axes

     site n.  atom      mass           positions (alat units)
        1     Al  26.9820   tau(    1) = (    0.00000    0.00000    0.00000  )

     Computing dynamical matrix for 
                    q = (   0.0000000  -0.2500000   0.2500000 )

      4 Sym.Ops. (no q -> -q+G )


     G cutoff =  113.9966  (    623 G-vectors)     FFT grid: ( 20, 20, 20)

     number of k points=  1008  gaussian smearing, width (Ry)=  0.0500

     PseudoPot. # 1 for Al read from file:
     /home/max/quantum_espresso/qe-6.1/pseudo/Al.pbe-n-kjpaw_psl.1.0.0.UPF
     MD5 check sum: dd5adf945272da8132fc805c9e56c2d6
     Pseudo is Projector augmented-wave + core cor, Zval =  3.0
     Generated using "atomic" code by A. Dal Corso  v.5.1
     Shape of augmentation charge: PSQ
     Using radial grid of 1135 points,  6 beta functions with: 
                l(1) =   0
                l(2) =   0
                l(3) =   1
                l(4) =   1
                l(5) =   2
                l(6) =   2
     Q(r) pseudized with 0 coefficients 


     Mode symmetry, C_2v (mm2)  point group:


     Atomic displacements:
     There are   3 irreducible representations

     Representation     1      1 modes -A_1  D_1  S_1  To be done

     Representation     2      1 modes -B_1  D_3  S_3  To be done

     Representation     3      1 modes -B_2  D_4  S_4  To be done



     Alpha used in Ewald sum =   1.4000
     PHONON       :  1m 4.51s CPU     1m 9.28s WALL



     Representation #  1 mode #   1

     Self-consistent Calculation

      iter #   1 total cpu time :    70.5 secs   av.it.:   4.5
      thresh= 1.000E-02 alpha_mix =  0.700 |ddv_scf|^2 =  6.406E-03

      iter #   2 total cpu time :    71.5 secs   av.it.:   5.3
      thresh= 8.004E-03 alpha_mix =  0.700 |ddv_scf|^2 =  2.287E-01

      iter #   3 total cpu time :    72.6 secs   av.it.:   5.1
      thresh= 1.000E-02 alpha_mix =  0.700 |ddv_scf|^2 =  1.948E-07

      iter #   4 total cpu time :    73.6 secs   av.it.:   5.9
      thresh= 4.413E-05 alpha_mix =  0.700 |ddv_scf|^2 =  4.020E-09

      iter #   5 total cpu time :    74.6 secs   av.it.:   5.9
      thresh= 6.341E-06 alpha_mix =  0.700 |ddv_scf|^2 =  1.425E-10

      iter #   6 total cpu time :    75.6 secs   av.it.:   6.0
      thresh= 1.194E-06 alpha_mix =  0.700 |ddv_scf|^2 =  2.127E-09

      iter #   7 total cpu time :    76.5 secs   av.it.:   4.0
      thresh= 4.612E-06 alpha_mix =  0.700 |ddv_scf|^2 =  2.413E-11

      iter #   8 total cpu time :    77.4 secs   av.it.:   5.3
      thresh= 4.913E-07 alpha_mix =  0.700 |ddv_scf|^2 =  6.512E-13

     End of self-consistent calculation

     Convergence has been achieved 


     Representation #  2 mode #   2

     Self-consistent Calculation

      iter #   1 total cpu time :    78.5 secs   av.it.:   3.5
      thresh= 1.000E-02 alpha_mix =  0.700 |ddv_scf|^2 =  6.785E-07

      iter #   2 total cpu time :    79.5 secs   av.it.:   5.9
      thresh= 8.237E-05 alpha_mix =  0.700 |ddv_scf|^2 =  4.479E-08

      iter #   3 total cpu time :    80.5 secs   av.it.:   5.9
      thresh= 2.116E-05 alpha_mix =  0.700 |ddv_scf|^2 =  1.130E-09

      iter #   4 total cpu time :    81.5 secs   av.it.:   5.6
      thresh= 3.362E-06 alpha_mix =  0.700 |ddv_scf|^2 =  4.131E-12

      iter #   5 total cpu time :    82.5 secs   av.it.:   6.2
      thresh= 2.033E-07 alpha_mix =  0.700 |ddv_scf|^2 =  3.098E-14

     End of self-consistent calculation

     Convergence has been achieved 


     Representation #  3 mode #   3

     Self-consistent Calculation

      iter #   1 total cpu time :    83.7 secs   av.it.:   3.4
      thresh= 1.000E-02 alpha_mix =  0.700 |ddv_scf|^2 =  5.821E-07

      iter #   2 total cpu time :    84.6 secs   av.it.:   5.8
      thresh= 7.630E-05 alpha_mix =  0.700 |ddv_scf|^2 =  4.096E-08

      iter #   3 total cpu time :    85.6 secs   av.it.:   5.7
      thresh= 2.024E-05 alpha_mix =  0.700 |ddv_scf|^2 =  1.072E-09

      iter #   4 total cpu time :    86.6 secs   av.it.:   5.5
      thresh= 3.275E-06 alpha_mix =  0.700 |ddv_scf|^2 =  1.089E-11

      iter #   5 total cpu time :    87.6 secs   av.it.:   5.8
      thresh= 3.300E-07 alpha_mix =  0.700 |ddv_scf|^2 =  8.735E-14

     End of self-consistent calculation

     Convergence has been achieved 

     Number of q in the star =   12
     List of q in the star:
          1   0.000000000  -0.250000000   0.250000000
          2  -0.250000000   0.000000000   0.250000000
          3   0.000000000   0.250000000   0.250000000
          4   0.250000000   0.000000000   0.250000000
          5   0.250000000  -0.250000000   0.000000000
          6   0.250000000   0.250000000   0.000000000
          7   0.000000000  -0.250000000  -0.250000000
          8  -0.250000000   0.250000000   0.000000000
          9   0.250000000   0.000000000  -0.250000000
         10  -0.250000000   0.000000000  -0.250000000
         11   0.000000000   0.250000000  -0.250000000
         12  -0.250000000  -0.250000000   0.000000000

     Diagonalizing the dynamical matrix

     q = (    0.000000000  -0.250000000   0.250000000 ) 

 **************************************************************************
     freq (    1) =      -2.713348 [THz] =     -90.507542 [cm-1]
     freq (    2) =       3.914498 [THz] =     130.573590 [cm-1]
     freq (    3) =       6.456047 [THz] =     215.350534 [cm-1]
 **************************************************************************

     Mode symmetry, C_2v (mm2)  point group:

     freq (  1 -  1) =        -90.5  [cm-1]   --> B_1  D_3  S_3      
     freq (  2 -  2) =        130.6  [cm-1]   --> B_2  D_4  S_4      
     freq (  3 -  3) =        215.4  [cm-1]   --> A_1  D_1  S_1      

     Calculation of q =    0.0000000  -0.3333333   0.3333333

   Info: using nr1, nr2, nr3 values from input

   Info: using nr1, nr2, nr3 values from input

     Parallelization info
     --------------------
     sticks:   dense  smooth     PW     G-vecs:    dense   smooth      PW
     Min          62      62     24                  622      622     156
     Max          63      63     25                  624      624     157
     Sum         249     249     99                 2491     2491     627



     bravais-lattice index     =            3
     lattice parameter (alat)  =       6.1240  a.u.
     unit-cell volume          =     114.8353 (a.u.)^3
     number of atoms/cell      =            1
     number of atomic types    =            1
     number of electrons       =         3.00
     number of Kohn-Sham states=            6
     kinetic-energy cutoff     =      30.0000  Ry
     charge density cutoff     =     120.0000  Ry
     Exchange-correlation      =  SLA  PW   PBX  PBC ( 1  4  3  4 0 0)

     celldm(1)=   6.124000  celldm(2)=   0.000000  celldm(3)=   0.000000
     celldm(4)=   0.000000  celldm(5)=   0.000000  celldm(6)=   0.000000

     crystal axes: (cart. coord. in units of alat)
               a(1) = (   0.500000   0.500000   0.500000 )  
               a(2) = (  -0.500000   0.500000   0.500000 )  
               a(3) = (  -0.500000  -0.500000   0.500000 )  

     reciprocal axes: (cart. coord. in units 2 pi/alat)
               b(1) = (  1.000000  0.000000  1.000000 )  
               b(2) = ( -1.000000  1.000000  0.000000 )  
               b(3) = (  0.000000 -1.000000  1.000000 )  


     PseudoPot. # 1 for Al read from file:
     /home/max/quantum_espresso/qe-6.1/pseudo/Al.pbe-n-kjpaw_psl.1.0.0.UPF
     MD5 check sum: dd5adf945272da8132fc805c9e56c2d6
     Pseudo is Projector augmented-wave + core cor, Zval =  3.0
     Generated using "atomic" code by A. Dal Corso  v.5.1
     Shape of augmentation charge: PSQ
     Using radial grid of 1135 points,  6 beta functions with: 
                l(1) =   0
                l(2) =   0
                l(3) =   1
                l(4) =   1
                l(5) =   2
                l(6) =   2
     Q(r) pseudized with 0 coefficients 


     atomic species   valence    mass     pseudopotential
        Al             3.00    26.98200     Al( 1.00)

     48 Sym. Ops., with inversion, found



   Cartesian axes

     site n.     atom                  positions (alat units)
         1           Al  tau(   1) = (   0.0000000   0.0000000   0.0000000  )

     number of k points=  1008  gaussian smearing, width (Ry)=  0.0500

     Number of k-points >= 100: set verbosity='high' to print them.

     Dense  grid:     2491 G-vectors     FFT dimensions: (  20,  20,  20)

     Estimated max dynamical RAM per process >       0.32MB

     Estimated total allocated dynamical RAM >       1.26MB

     The potential is recalculated from file :
     ./_ph0/aluminium.bcc.save/charge-density.dat

     Starting wfc are    4 atomic +    2 random wfc
     Checking if some PAW data can be deallocated... 

     Band Structure Calculation
     Davidson diagonalization with overlap

     ethr =  3.33E-10,  avg # of iterations = 15.9

     total cpu time spent up to now is       28.7 secs

     End of band structure calculation

     Number of k-points >= 100: set verbosity='high' to print the bands.

     the Fermi energy is     7.5871 ev

     Writing output data file aluminium.bcc.save

                                                                                

     bravais-lattice index     =            3
     lattice parameter (alat)  =       6.1240  a.u.
     unit-cell volume          =     114.8353 (a.u.)^3
     number of atoms/cell      =            1
     number of atomic types    =            1
     kinetic-energy cut-off    =      30.0000  Ry
     charge density cut-off    =     120.0000  Ry
     convergence threshold     =      1.0E-12
     beta                      =       0.7000
     number of iterations used =            4
     Exchange-correlation      =  SLA  PW   PBX  PBC ( 1  4  3  4 0 0)


     celldm(1)=    6.12400  celldm(2)=    0.00000  celldm(3)=    0.00000
     celldm(4)=    0.00000  celldm(5)=    0.00000  celldm(6)=    0.00000

     crystal axes: (cart. coord. in units of alat)
               a(1) = (  0.5000  0.5000  0.5000 )  
               a(2) = ( -0.5000  0.5000  0.5000 )  
               a(3) = ( -0.5000 -0.5000  0.5000 )  

     reciprocal axes: (cart. coord. in units 2 pi/alat)
               b(1) = (  1.0000  0.0000  1.0000 )  
               b(2) = ( -1.0000  1.0000  0.0000 )  
               b(3) = (  0.0000 -1.0000  1.0000 )  


     Atoms inside the unit cell: 

     Cartesian axes

     site n.  atom      mass           positions (alat units)
        1     Al  26.9820   tau(    1) = (    0.00000    0.00000    0.00000  )

     Computing dynamical matrix for 
                    q = (   0.0000000  -0.3333333   0.3333333 )

      4 Sym.Ops. (no q -> -q+G )


     G cutoff =  113.9966  (    623 G-vectors)     FFT grid: ( 20, 20, 20)

     number of k points=  1008  gaussian smearing, width (Ry)=  0.0500

     PseudoPot. # 1 for Al read from file:
     /home/max/quantum_espresso/qe-6.1/pseudo/Al.pbe-n-kjpaw_psl.1.0.0.UPF
     MD5 check sum: dd5adf945272da8132fc805c9e56c2d6
     Pseudo is Projector augmented-wave + core cor, Zval =  3.0
     Generated using "atomic" code by A. Dal Corso  v.5.1
     Shape of augmentation charge: PSQ
     Using radial grid of 1135 points,  6 beta functions with: 
                l(1) =   0
                l(2) =   0
                l(3) =   1
                l(4) =   1
                l(5) =   2
                l(6) =   2
     Q(r) pseudized with 0 coefficients 


     Mode symmetry, C_2v (mm2)  point group:


     Atomic displacements:
     There are   3 irreducible representations

     Representation     1      1 modes -A_1  D_1  S_1  To be done

     Representation     2      1 modes -B_1  D_3  S_3  To be done

     Representation     3      1 modes -B_2  D_4  S_4  To be done



     Alpha used in Ewald sum =   1.4000
     PHONON       :  1m29.72s CPU     1m36.30s WALL



     Representation #  1 mode #   1

     Self-consistent Calculation

      iter #   1 total cpu time :    97.4 secs   av.it.:   4.5
      thresh= 1.000E-02 alpha_mix =  0.700 |ddv_scf|^2 =  9.013E-04

      iter #   2 total cpu time :    98.3 secs   av.it.:   5.6
      thresh= 3.002E-03 alpha_mix =  0.700 |ddv_scf|^2 =  8.739E-03

      iter #   3 total cpu time :    99.2 secs   av.it.:   4.5
      thresh= 9.348E-03 alpha_mix =  0.700 |ddv_scf|^2 =  1.108E-07

      iter #   4 total cpu time :   100.2 secs   av.it.:   6.4
      thresh= 3.328E-05 alpha_mix =  0.700 |ddv_scf|^2 =  7.367E-09

      iter #   5 total cpu time :   101.2 secs   av.it.:   6.0
      thresh= 8.583E-06 alpha_mix =  0.700 |ddv_scf|^2 =  5.722E-10

      iter #   6 total cpu time :   102.2 secs   av.it.:   6.1
      thresh= 2.392E-06 alpha_mix =  0.700 |ddv_scf|^2 =  5.386E-11

      iter #   7 total cpu time :   103.1 secs   av.it.:   5.7
      thresh= 7.339E-07 alpha_mix =  0.700 |ddv_scf|^2 =  2.714E-10

      iter #   8 total cpu time :   104.0 secs   av.it.:   4.7
      thresh= 1.648E-06 alpha_mix =  0.700 |ddv_scf|^2 =  1.194E-12

      iter #   9 total cpu time :   105.0 secs   av.it.:   5.8
      thresh= 1.093E-07 alpha_mix =  0.700 |ddv_scf|^2 =  2.134E-12

      iter #  10 total cpu time :   105.9 secs   av.it.:   5.0
      thresh= 1.461E-07 alpha_mix =  0.700 |ddv_scf|^2 =  2.699E-16

     End of self-consistent calculation

     Convergence has been achieved 


     Representation #  2 mode #   2

     Self-consistent Calculation

      iter #   1 total cpu time :   107.0 secs   av.it.:   3.5
      thresh= 1.000E-02 alpha_mix =  0.700 |ddv_scf|^2 =  6.697E-07

      iter #   2 total cpu time :   108.0 secs   av.it.:   5.9
      thresh= 8.184E-05 alpha_mix =  0.700 |ddv_scf|^2 =  4.572E-08

      iter #   3 total cpu time :   108.9 secs   av.it.:   5.9
      thresh= 2.138E-05 alpha_mix =  0.700 |ddv_scf|^2 =  1.162E-09

      iter #   4 total cpu time :   109.9 secs   av.it.:   5.6
      thresh= 3.409E-06 alpha_mix =  0.700 |ddv_scf|^2 =  5.177E-12

      iter #   5 total cpu time :   110.8 secs   av.it.:   6.2
      thresh= 2.275E-07 alpha_mix =  0.700 |ddv_scf|^2 =  2.675E-14

     End of self-consistent calculation

     Convergence has been achieved 


     Representation #  3 mode #   3

     Self-consistent Calculation

      iter #   1 total cpu time :   111.9 secs   av.it.:   3.5
      thresh= 1.000E-02 alpha_mix =  0.700 |ddv_scf|^2 =  5.290E-07

      iter #   2 total cpu time :   112.9 secs   av.it.:   5.8
      thresh= 7.273E-05 alpha_mix =  0.700 |ddv_scf|^2 =  3.988E-08

      iter #   3 total cpu time :   113.9 secs   av.it.:   5.6
      thresh= 1.997E-05 alpha_mix =  0.700 |ddv_scf|^2 =  1.033E-09

      iter #   4 total cpu time :   114.8 secs   av.it.:   5.4
      thresh= 3.214E-06 alpha_mix =  0.700 |ddv_scf|^2 =  1.092E-11

      iter #   5 total cpu time :   115.7 secs   av.it.:   5.4
      thresh= 3.305E-07 alpha_mix =  0.700 |ddv_scf|^2 =  6.925E-14

     End of self-consistent calculation

     Convergence has been achieved 

     Number of q in the star =   12
     List of q in the star:
          1   0.000000000  -0.333333333   0.333333333
          2  -0.333333333   0.000000000   0.333333333
          3   0.000000000   0.333333333   0.333333333
          4   0.333333333   0.000000000   0.333333333
          5   0.333333333  -0.333333333   0.000000000
          6   0.333333333   0.333333333   0.000000000
          7   0.000000000  -0.333333333  -0.333333333
          8  -0.333333333   0.333333333   0.000000000
          9   0.333333333   0.000000000  -0.333333333
         10  -0.333333333   0.000000000  -0.333333333
         11   0.000000000   0.333333333  -0.333333333
         12  -0.333333333  -0.333333333   0.000000000

     Diagonalizing the dynamical matrix

     q = (    0.000000000  -0.333333333   0.333333333 ) 

 **************************************************************************
     freq (    1) =      -3.127469 [THz] =    -104.321122 [cm-1]
     freq (    2) =       4.860027 [THz] =     162.113040 [cm-1]
     freq (    3) =       7.911285 [THz] =     263.892078 [cm-1]
 **************************************************************************

     Mode symmetry, C_2v (mm2)  point group:

     freq (  1 -  1) =       -104.3  [cm-1]   --> B_1  D_3  S_3      
     freq (  2 -  2) =        162.1  [cm-1]   --> B_2  D_4  S_4      
     freq (  3 -  3) =        263.9  [cm-1]   --> A_1  D_1  S_1      

     Calculation of q =    0.0000000  -0.4166667   0.4166667

   Info: using nr1, nr2, nr3 values from input

   Info: using nr1, nr2, nr3 values from input

     Parallelization info
     --------------------
     sticks:   dense  smooth     PW     G-vecs:    dense   smooth      PW
     Min          62      62     24                  622      622     167
     Max          63      63     25                  624      624     170
     Sum         249     249     99                 2491     2491     675



     bravais-lattice index     =            3
     lattice parameter (alat)  =       6.1240  a.u.
     unit-cell volume          =     114.8353 (a.u.)^3
     number of atoms/cell      =            1
     number of atomic types    =            1
     number of electrons       =         3.00
     number of Kohn-Sham states=            6
     kinetic-energy cutoff     =      30.0000  Ry
     charge density cutoff     =     120.0000  Ry
     Exchange-correlation      =  SLA  PW   PBX  PBC ( 1  4  3  4 0 0)

     celldm(1)=   6.124000  celldm(2)=   0.000000  celldm(3)=   0.000000
     celldm(4)=   0.000000  celldm(5)=   0.000000  celldm(6)=   0.000000

     crystal axes: (cart. coord. in units of alat)
               a(1) = (   0.500000   0.500000   0.500000 )  
               a(2) = (  -0.500000   0.500000   0.500000 )  
               a(3) = (  -0.500000  -0.500000   0.500000 )  

     reciprocal axes: (cart. coord. in units 2 pi/alat)
               b(1) = (  1.000000  0.000000  1.000000 )  
               b(2) = ( -1.000000  1.000000  0.000000 )  
               b(3) = (  0.000000 -1.000000  1.000000 )  


     PseudoPot. # 1 for Al read from file:
     /home/max/quantum_espresso/qe-6.1/pseudo/Al.pbe-n-kjpaw_psl.1.0.0.UPF
     MD5 check sum: dd5adf945272da8132fc805c9e56c2d6
     Pseudo is Projector augmented-wave + core cor, Zval =  3.0
     Generated using "atomic" code by A. Dal Corso  v.5.1
     Shape of augmentation charge: PSQ
     Using radial grid of 1135 points,  6 beta functions with: 
                l(1) =   0
                l(2) =   0
                l(3) =   1
                l(4) =   1
                l(5) =   2
                l(6) =   2
     Q(r) pseudized with 0 coefficients 


     atomic species   valence    mass     pseudopotential
        Al             3.00    26.98200     Al( 1.00)

     48 Sym. Ops., with inversion, found



   Cartesian axes

     site n.     atom                  positions (alat units)
         1           Al  tau(   1) = (   0.0000000   0.0000000   0.0000000  )

     number of k points=  1008  gaussian smearing, width (Ry)=  0.0500

     Number of k-points >= 100: set verbosity='high' to print them.

     Dense  grid:     2491 G-vectors     FFT dimensions: (  20,  20,  20)

     Estimated max dynamical RAM per process >       0.32MB

     Estimated total allocated dynamical RAM >       1.26MB

     The potential is recalculated from file :
     ./_ph0/aluminium.bcc.save/charge-density.dat

     Starting wfc are    4 atomic +    2 random wfc
     Checking if some PAW data can be deallocated... 

     Band Structure Calculation
     Davidson diagonalization with overlap

     ethr =  3.33E-10,  avg # of iterations = 16.0

     total cpu time spent up to now is       35.8 secs

     End of band structure calculation

     Number of k-points >= 100: set verbosity='high' to print the bands.

     the Fermi energy is     7.5871 ev

     Writing output data file aluminium.bcc.save

                                                                                

     bravais-lattice index     =            3
     lattice parameter (alat)  =       6.1240  a.u.
     unit-cell volume          =     114.8353 (a.u.)^3
     number of atoms/cell      =            1
     number of atomic types    =            1
     kinetic-energy cut-off    =      30.0000  Ry
     charge density cut-off    =     120.0000  Ry
     convergence threshold     =      1.0E-12
     beta                      =       0.7000
     number of iterations used =            4
     Exchange-correlation      =  SLA  PW   PBX  PBC ( 1  4  3  4 0 0)


     celldm(1)=    6.12400  celldm(2)=    0.00000  celldm(3)=    0.00000
     celldm(4)=    0.00000  celldm(5)=    0.00000  celldm(6)=    0.00000

     crystal axes: (cart. coord. in units of alat)
               a(1) = (  0.5000  0.5000  0.5000 )  
               a(2) = ( -0.5000  0.5000  0.5000 )  
               a(3) = ( -0.5000 -0.5000  0.5000 )  

     reciprocal axes: (cart. coord. in units 2 pi/alat)
               b(1) = (  1.0000  0.0000  1.0000 )  
               b(2) = ( -1.0000  1.0000  0.0000 )  
               b(3) = (  0.0000 -1.0000  1.0000 )  


     Atoms inside the unit cell: 

     Cartesian axes

     site n.  atom      mass           positions (alat units)
        1     Al  26.9820   tau(    1) = (    0.00000    0.00000    0.00000  )

     Computing dynamical matrix for 
                    q = (   0.0000000  -0.4166667   0.4166667 )

      4 Sym.Ops. (no q -> -q+G )


     G cutoff =  113.9966  (    623 G-vectors)     FFT grid: ( 20, 20, 20)

     number of k points=  1008  gaussian smearing, width (Ry)=  0.0500

     PseudoPot. # 1 for Al read from file:
     /home/max/quantum_espresso/qe-6.1/pseudo/Al.pbe-n-kjpaw_psl.1.0.0.UPF
     MD5 check sum: dd5adf945272da8132fc805c9e56c2d6
     Pseudo is Projector augmented-wave + core cor, Zval =  3.0
     Generated using "atomic" code by A. Dal Corso  v.5.1
     Shape of augmentation charge: PSQ
     Using radial grid of 1135 points,  6 beta functions with: 
                l(1) =   0
                l(2) =   0
                l(3) =   1
                l(4) =   1
                l(5) =   2
                l(6) =   2
     Q(r) pseudized with 0 coefficients 


     Mode symmetry, C_2v (mm2)  point group:


     Atomic displacements:
     There are   3 irreducible representations

     Representation     1      1 modes -A_1  D_1  S_1  To be done

     Representation     2      1 modes -B_1  D_3  S_3  To be done

     Representation     3      1 modes -B_2  D_4  S_4  To be done



     Alpha used in Ewald sum =   1.4000
     PHONON       :  1m55.70s CPU     2m 3.87s WALL



     Representation #  1 mode #   1

     Self-consistent Calculation

      iter #   1 total cpu time :   124.9 secs   av.it.:   4.5
      thresh= 1.000E-02 alpha_mix =  0.700 |ddv_scf|^2 =  1.758E-04

      iter #   2 total cpu time :   125.9 secs   av.it.:   5.9
      thresh= 1.326E-03 alpha_mix =  0.700 |ddv_scf|^2 =  5.387E-04

      iter #   3 total cpu time :   126.8 secs   av.it.:   5.0
      thresh= 2.321E-03 alpha_mix =  0.700 |ddv_scf|^2 =  6.202E-07

      iter #   4 total cpu time :   127.8 secs   av.it.:   6.0
      thresh= 7.875E-05 alpha_mix =  0.700 |ddv_scf|^2 =  1.053E-08

      iter #   5 total cpu time :   128.8 secs   av.it.:   6.1
      thresh= 1.026E-05 alpha_mix =  0.700 |ddv_scf|^2 =  3.423E-10

      iter #   6 total cpu time :   129.7 secs   av.it.:   5.9
      thresh= 1.850E-06 alpha_mix =  0.700 |ddv_scf|^2 =  7.583E-12

      iter #   7 total cpu time :   130.7 secs   av.it.:   5.5
      thresh= 2.754E-07 alpha_mix =  0.700 |ddv_scf|^2 =  5.274E-13

     End of self-consistent calculation

     Convergence has been achieved 


     Representation #  2 mode #   2

     Self-consistent Calculation

      iter #   1 total cpu time :   131.8 secs   av.it.:   3.5
      thresh= 1.000E-02 alpha_mix =  0.700 |ddv_scf|^2 =  6.631E-07

      iter #   2 total cpu time :   132.8 secs   av.it.:   5.9
      thresh= 8.143E-05 alpha_mix =  0.700 |ddv_scf|^2 =  4.643E-08

      iter #   3 total cpu time :   133.7 secs   av.it.:   5.9
      thresh= 2.155E-05 alpha_mix =  0.700 |ddv_scf|^2 =  1.172E-09

      iter #   4 total cpu time :   134.7 secs   av.it.:   5.6
      thresh= 3.424E-06 alpha_mix =  0.700 |ddv_scf|^2 =  5.778E-12

      iter #   5 total cpu time :   135.6 secs   av.it.:   6.2
      thresh= 2.404E-07 alpha_mix =  0.700 |ddv_scf|^2 =  2.373E-14

     End of self-consistent calculation

     Convergence has been achieved 


     Representation #  3 mode #   3

     Self-consistent Calculation

      iter #   1 total cpu time :   136.7 secs   av.it.:   3.5
      thresh= 1.000E-02 alpha_mix =  0.700 |ddv_scf|^2 =  4.915E-07

      iter #   2 total cpu time :   137.7 secs   av.it.:   5.7
      thresh= 7.011E-05 alpha_mix =  0.700 |ddv_scf|^2 =  3.902E-08

      iter #   3 total cpu time :   138.6 secs   av.it.:   5.6
      thresh= 1.975E-05 alpha_mix =  0.700 |ddv_scf|^2 =  9.973E-10

      iter #   4 total cpu time :   139.5 secs   av.it.:   5.4
      thresh= 3.158E-06 alpha_mix =  0.700 |ddv_scf|^2 =  9.143E-12

      iter #   5 total cpu time :   140.5 secs   av.it.:   5.3
      thresh= 3.024E-07 alpha_mix =  0.700 |ddv_scf|^2 =  3.152E-14

     End of self-consistent calculation

     Convergence has been achieved 

     Number of q in the star =   12
     List of q in the star:
          1   0.000000000  -0.416666667   0.416666667
          2  -0.416666667   0.000000000   0.416666667
          3   0.000000000   0.416666667   0.416666667
          4   0.416666667   0.000000000   0.416666667
          5   0.416666667  -0.416666667   0.000000000
          6   0.416666667   0.416666667   0.000000000
          7   0.000000000  -0.416666667  -0.416666667
          8  -0.416666667   0.416666667   0.000000000
          9   0.416666667   0.000000000  -0.416666667
         10  -0.416666667   0.000000000  -0.416666667
         11   0.000000000   0.416666667  -0.416666667
         12  -0.416666667  -0.416666667   0.000000000

     Diagonalizing the dynamical matrix

     q = (    0.000000000  -0.416666667   0.416666667 ) 

 **************************************************************************
     freq (    1) =      -3.233282 [THz] =    -107.850693 [cm-1]
     freq (    2) =       5.566069 [THz] =     185.664071 [cm-1]
     freq (    3) =       8.757446 [THz] =     292.116959 [cm-1]
 **************************************************************************

     Mode symmetry, C_2v (mm2)  point group:

     freq (  1 -  1) =       -107.9  [cm-1]   --> B_1  D_3  S_3      
     freq (  2 -  2) =        185.7  [cm-1]   --> B_2  D_4  S_4      
     freq (  3 -  3) =        292.1  [cm-1]   --> A_1  D_1  S_1      

     Calculation of q =    0.0000000   0.5000000  -0.5000000

   Info: using nr1, nr2, nr3 values from input

   Info: using nr1, nr2, nr3 values from input

     Parallelization info
     --------------------
     sticks:   dense  smooth     PW     G-vecs:    dense   smooth      PW
     Min          62      62     24                  622      622     167
     Max          63      63     25                  624      624     170
     Sum         249     249     99                 2491     2491     675



     bravais-lattice index     =            3
     lattice parameter (alat)  =       6.1240  a.u.
     unit-cell volume          =     114.8353 (a.u.)^3
     number of atoms/cell      =            1
     number of atomic types    =            1
     number of electrons       =         3.00
     number of Kohn-Sham states=            6
     kinetic-energy cutoff     =      30.0000  Ry
     charge density cutoff     =     120.0000  Ry
     Exchange-correlation      =  SLA  PW   PBX  PBC ( 1  4  3  4 0 0)

     celldm(1)=   6.124000  celldm(2)=   0.000000  celldm(3)=   0.000000
     celldm(4)=   0.000000  celldm(5)=   0.000000  celldm(6)=   0.000000

     crystal axes: (cart. coord. in units of alat)
               a(1) = (   0.500000   0.500000   0.500000 )  
               a(2) = (  -0.500000   0.500000   0.500000 )  
               a(3) = (  -0.500000  -0.500000   0.500000 )  

     reciprocal axes: (cart. coord. in units 2 pi/alat)
               b(1) = (  1.000000  0.000000  1.000000 )  
               b(2) = ( -1.000000  1.000000  0.000000 )  
               b(3) = (  0.000000 -1.000000  1.000000 )  


     PseudoPot. # 1 for Al read from file:
     /home/max/quantum_espresso/qe-6.1/pseudo/Al.pbe-n-kjpaw_psl.1.0.0.UPF
     MD5 check sum: dd5adf945272da8132fc805c9e56c2d6
     Pseudo is Projector augmented-wave + core cor, Zval =  3.0
     Generated using "atomic" code by A. Dal Corso  v.5.1
     Shape of augmentation charge: PSQ
     Using radial grid of 1135 points,  6 beta functions with: 
                l(1) =   0
                l(2) =   0
                l(3) =   1
                l(4) =   1
                l(5) =   2
                l(6) =   2
     Q(r) pseudized with 0 coefficients 


     atomic species   valence    mass     pseudopotential
        Al             3.00    26.98200     Al( 1.00)

     48 Sym. Ops., with inversion, found



   Cartesian axes

     site n.     atom                  positions (alat units)
         1           Al  tau(   1) = (   0.0000000   0.0000000   0.0000000  )

     number of k points=   546  gaussian smearing, width (Ry)=  0.0500

     Number of k-points >= 100: set verbosity='high' to print them.

     Dense  grid:     2491 G-vectors     FFT dimensions: (  20,  20,  20)

     Estimated max dynamical RAM per process >       0.32MB

     Estimated total allocated dynamical RAM >       1.26MB

     The potential is recalculated from file :
     ./_ph0/aluminium.bcc.save/charge-density.dat

     Starting wfc are    4 atomic +    2 random wfc
     Checking if some PAW data can be deallocated... 

     Band Structure Calculation
     Davidson diagonalization with overlap

     ethr =  3.33E-10,  avg # of iterations = 16.0

     total cpu time spent up to now is       40.1 secs

     End of band structure calculation

     Number of k-points >= 100: set verbosity='high' to print the bands.

     the Fermi energy is     7.5871 ev

     Writing output data file aluminium.bcc.save

                                                                                

     bravais-lattice index     =            3
     lattice parameter (alat)  =       6.1240  a.u.
     unit-cell volume          =     114.8353 (a.u.)^3
     number of atoms/cell      =            1
     number of atomic types    =            1
     kinetic-energy cut-off    =      30.0000  Ry
     charge density cut-off    =     120.0000  Ry
     convergence threshold     =      1.0E-12
     beta                      =       0.7000
     number of iterations used =            4
     Exchange-correlation      =  SLA  PW   PBX  PBC ( 1  4  3  4 0 0)


     celldm(1)=    6.12400  celldm(2)=    0.00000  celldm(3)=    0.00000
     celldm(4)=    0.00000  celldm(5)=    0.00000  celldm(6)=    0.00000

     crystal axes: (cart. coord. in units of alat)
               a(1) = (  0.5000  0.5000  0.5000 )  
               a(2) = ( -0.5000  0.5000  0.5000 )  
               a(3) = ( -0.5000 -0.5000  0.5000 )  

     reciprocal axes: (cart. coord. in units 2 pi/alat)
               b(1) = (  1.0000  0.0000  1.0000 )  
               b(2) = ( -1.0000  1.0000  0.0000 )  
               b(3) = (  0.0000 -1.0000  1.0000 )  


     Atoms inside the unit cell: 

     Cartesian axes

     site n.  atom      mass           positions (alat units)
        1     Al  26.9820   tau(    1) = (    0.00000    0.00000    0.00000  )

     Computing dynamical matrix for 
                    q = (   0.0000000   0.5000000  -0.5000000 )

      9 Sym.Ops. (with q -> -q+G )


     G cutoff =  113.9966  (    623 G-vectors)     FFT grid: ( 20, 20, 20)

     number of k points=   546  gaussian smearing, width (Ry)=  0.0500

     PseudoPot. # 1 for Al read from file:
     /home/max/quantum_espresso/qe-6.1/pseudo/Al.pbe-n-kjpaw_psl.1.0.0.UPF
     MD5 check sum: dd5adf945272da8132fc805c9e56c2d6
     Pseudo is Projector augmented-wave + core cor, Zval =  3.0
     Generated using "atomic" code by A. Dal Corso  v.5.1
     Shape of augmentation charge: PSQ
     Using radial grid of 1135 points,  6 beta functions with: 
                l(1) =   0
                l(2) =   0
                l(3) =   1
                l(4) =   1
                l(5) =   2
                l(6) =   2
     Q(r) pseudized with 0 coefficients 


     Mode symmetry, D_2h (mmm)  point group:


     Atomic displacements:
     There are   3 irreducible representations

     Representation     1      1 modes -B_1u  To be done

     Representation     2      1 modes -B_2u  To be done

     Representation     3      1 modes -B_3u  To be done



     Alpha used in Ewald sum =   1.4000
     PHONON       :  2m15.70s CPU     2m25.03s WALL



     Representation #  1 mode #   1

     Self-consistent Calculation

      iter #   1 total cpu time :   145.8 secs   av.it.:   3.5
      thresh= 1.000E-02 alpha_mix =  0.700 |ddv_scf|^2 =  4.773E-07

      iter #   2 total cpu time :   146.5 secs   av.it.:   5.7
      thresh= 6.909E-05 alpha_mix =  0.700 |ddv_scf|^2 =  3.861E-08

      iter #   3 total cpu time :   147.2 secs   av.it.:   5.6
      thresh= 1.965E-05 alpha_mix =  0.700 |ddv_scf|^2 =  9.761E-10

      iter #   4 total cpu time :   147.9 secs   av.it.:   5.4
      thresh= 3.124E-06 alpha_mix =  0.700 |ddv_scf|^2 =  8.380E-12

      iter #   5 total cpu time :   148.6 secs   av.it.:   5.4
      thresh= 2.895E-07 alpha_mix =  0.700 |ddv_scf|^2 =  1.301E-14

     End of self-consistent calculation

     Convergence has been achieved 


     Representation #  2 mode #   2

     Self-consistent Calculation

      iter #   1 total cpu time :   149.4 secs   av.it.:   3.5
      thresh= 1.000E-02 alpha_mix =  0.700 |ddv_scf|^2 =  6.607E-07

      iter #   2 total cpu time :   150.1 secs   av.it.:   5.9
      thresh= 8.128E-05 alpha_mix =  0.700 |ddv_scf|^2 =  4.665E-08

      iter #   3 total cpu time :   150.9 secs   av.it.:   5.8
      thresh= 2.160E-05 alpha_mix =  0.700 |ddv_scf|^2 =  1.169E-09

      iter #   4 total cpu time :   151.6 secs   av.it.:   5.6
      thresh= 3.418E-06 alpha_mix =  0.700 |ddv_scf|^2 =  5.812E-12

      iter #   5 total cpu time :   152.3 secs   av.it.:   6.1
      thresh= 2.411E-07 alpha_mix =  0.700 |ddv_scf|^2 =  2.080E-14

     End of self-consistent calculation

     Convergence has been achieved 


     Representation #  3 mode #   3

     Self-consistent Calculation

      iter #   1 total cpu time :   153.1 secs   av.it.:   4.3
      thresh= 1.000E-02 alpha_mix =  0.700 |ddv_scf|^2 =  6.833E-05

      iter #   2 total cpu time :   153.8 secs   av.it.:   5.9
      thresh= 8.266E-04 alpha_mix =  0.700 |ddv_scf|^2 =  6.863E-05

      iter #   3 total cpu time :   154.5 secs   av.it.:   5.5
      thresh= 8.284E-04 alpha_mix =  0.700 |ddv_scf|^2 =  2.258E-08

      iter #   4 total cpu time :   155.3 secs   av.it.:   6.0
      thresh= 1.503E-05 alpha_mix =  0.700 |ddv_scf|^2 =  6.518E-10

      iter #   5 total cpu time :   156.0 secs   av.it.:   5.6
      thresh= 2.553E-06 alpha_mix =  0.700 |ddv_scf|^2 =  8.795E-12

      iter #   6 total cpu time :   156.7 secs   av.it.:   5.2
      thresh= 2.966E-07 alpha_mix =  0.700 |ddv_scf|^2 =  3.554E-15

     End of self-consistent calculation

     Convergence has been achieved 

     Number of q in the star =    6
     List of q in the star:
          1   0.000000000   0.500000000  -0.500000000
          2  -0.500000000   0.500000000   0.000000000
          3  -0.500000000  -0.500000000   0.000000000
          4  -0.500000000   0.000000000  -0.500000000
          5   0.000000000  -0.500000000  -0.500000000
          6   0.500000000   0.000000000  -0.500000000

     Diagonalizing the dynamical matrix

     q = (    0.000000000   0.500000000  -0.500000000 ) 

 **************************************************************************
     freq (    1) =      -3.211835 [THz] =    -107.135299 [cm-1]
     freq (    2) =       5.892899 [THz] =     196.565966 [cm-1]
     freq (    3) =       9.032727 [THz] =     301.299345 [cm-1]
 **************************************************************************

     Mode symmetry, D_2h (mmm)  point group:

     freq (  1 -  1) =       -107.1  [cm-1]   --> B_2u               
     freq (  2 -  2) =        196.6  [cm-1]   --> B_1u               
     freq (  3 -  3) =        301.3  [cm-1]   --> B_3u               

     Calculation of q =   -0.0833333  -0.0833333   0.1666667

   Info: using nr1, nr2, nr3 values from input

   Info: using nr1, nr2, nr3 values from input

     Parallelization info
     --------------------
     sticks:   dense  smooth     PW     G-vecs:    dense   smooth      PW
     Min          62      62     23                  622      622     150
     Max          63      63     24                  624      624     151
     Sum         249     249     95                 2491     2491     603



     bravais-lattice index     =            3
     lattice parameter (alat)  =       6.1240  a.u.
     unit-cell volume          =     114.8353 (a.u.)^3
     number of atoms/cell      =            1
     number of atomic types    =            1
     number of electrons       =         3.00
     number of Kohn-Sham states=            6
     kinetic-energy cutoff     =      30.0000  Ry
     charge density cutoff     =     120.0000  Ry
     Exchange-correlation      =  SLA  PW   PBX  PBC ( 1  4  3  4 0 0)

     celldm(1)=   6.124000  celldm(2)=   0.000000  celldm(3)=   0.000000
     celldm(4)=   0.000000  celldm(5)=   0.000000  celldm(6)=   0.000000

     crystal axes: (cart. coord. in units of alat)
               a(1) = (   0.500000   0.500000   0.500000 )  
               a(2) = (  -0.500000   0.500000   0.500000 )  
               a(3) = (  -0.500000  -0.500000   0.500000 )  

     reciprocal axes: (cart. coord. in units 2 pi/alat)
               b(1) = (  1.000000  0.000000  1.000000 )  
               b(2) = ( -1.000000  1.000000  0.000000 )  
               b(3) = (  0.000000 -1.000000  1.000000 )  


     PseudoPot. # 1 for Al read from file:
     /home/max/quantum_espresso/qe-6.1/pseudo/Al.pbe-n-kjpaw_psl.1.0.0.UPF
     MD5 check sum: dd5adf945272da8132fc805c9e56c2d6
     Pseudo is Projector augmented-wave + core cor, Zval =  3.0
     Generated using "atomic" code by A. Dal Corso  v.5.1
     Shape of augmentation charge: PSQ
     Using radial grid of 1135 points,  6 beta functions with: 
                l(1) =   0
                l(2) =   0
                l(3) =   1
                l(4) =   1
                l(5) =   2
                l(6) =   2
     Q(r) pseudized with 0 coefficients 


     atomic species   valence    mass     pseudopotential
        Al             3.00    26.98200     Al( 1.00)

     48 Sym. Ops., with inversion, found



   Cartesian axes

     site n.     atom                  positions (alat units)
         1           Al  tau(   1) = (   0.0000000   0.0000000   0.0000000  )

     number of k points=  1872  gaussian smearing, width (Ry)=  0.0500

     Number of k-points >= 100: set verbosity='high' to print them.

     Dense  grid:     2491 G-vectors     FFT dimensions: (  20,  20,  20)

     Estimated max dynamical RAM per process >       0.32MB

     Estimated total allocated dynamical RAM >       1.26MB

     The potential is recalculated from file :
     ./_ph0/aluminium.bcc.save/charge-density.dat

     Starting wfc are    4 atomic +    2 random wfc
     Checking if some PAW data can be deallocated... 

     Band Structure Calculation
     Davidson diagonalization with overlap

     ethr =  3.33E-10,  avg # of iterations = 16.0

     total cpu time spent up to now is       51.6 secs

     End of band structure calculation

     Number of k-points >= 100: set verbosity='high' to print the bands.

     the Fermi energy is     7.5871 ev

     Writing output data file aluminium.bcc.save

                                                                                

     bravais-lattice index     =            3
     lattice parameter (alat)  =       6.1240  a.u.
     unit-cell volume          =     114.8353 (a.u.)^3
     number of atoms/cell      =            1
     number of atomic types    =            1
     kinetic-energy cut-off    =      30.0000  Ry
     charge density cut-off    =     120.0000  Ry
     convergence threshold     =      1.0E-12
     beta                      =       0.7000
     number of iterations used =            4
     Exchange-correlation      =  SLA  PW   PBX  PBC ( 1  4  3  4 0 0)


     celldm(1)=    6.12400  celldm(2)=    0.00000  celldm(3)=    0.00000
     celldm(4)=    0.00000  celldm(5)=    0.00000  celldm(6)=    0.00000

     crystal axes: (cart. coord. in units of alat)
               a(1) = (  0.5000  0.5000  0.5000 )  
               a(2) = ( -0.5000  0.5000  0.5000 )  
               a(3) = ( -0.5000 -0.5000  0.5000 )  

     reciprocal axes: (cart. coord. in units 2 pi/alat)
               b(1) = (  1.0000  0.0000  1.0000 )  
               b(2) = ( -1.0000  1.0000  0.0000 )  
               b(3) = (  0.0000 -1.0000  1.0000 )  


     Atoms inside the unit cell: 

     Cartesian axes

     site n.  atom      mass           positions (alat units)
        1     Al  26.9820   tau(    1) = (    0.00000    0.00000    0.00000  )

     Computing dynamical matrix for 
                    q = (  -0.0833333  -0.0833333   0.1666667 )

      2 Sym.Ops. (no q -> -q+G )


     G cutoff =  113.9966  (    623 G-vectors)     FFT grid: ( 20, 20, 20)

     number of k points=  1872  gaussian smearing, width (Ry)=  0.0500

     PseudoPot. # 1 for Al read from file:
     /home/max/quantum_espresso/qe-6.1/pseudo/Al.pbe-n-kjpaw_psl.1.0.0.UPF
     MD5 check sum: dd5adf945272da8132fc805c9e56c2d6
     Pseudo is Projector augmented-wave + core cor, Zval =  3.0
     Generated using "atomic" code by A. Dal Corso  v.5.1
     Shape of augmentation charge: PSQ
     Using radial grid of 1135 points,  6 beta functions with: 
                l(1) =   0
                l(2) =   0
                l(3) =   1
                l(4) =   1
                l(5) =   2
                l(6) =   2
     Q(r) pseudized with 0 coefficients 


     Mode symmetry, C_s (m)     point group:


     Atomic displacements:
     There are   3 irreducible representations

     Representation     1      1 modes -A'  To be done

     Representation     2      1 modes -A'  To be done

     Representation     3      1 modes -A''  To be done



     Alpha used in Ewald sum =   1.4000
     PHONON       :  2m39.98s CPU     2m50.58s WALL



     Representation #  1 mode #   1

     Self-consistent Calculation

      iter #   1 total cpu time :   172.2 secs   av.it.:   4.0
      thresh= 1.000E-02 alpha_mix =  0.700 |ddv_scf|^2 =  2.162E-02

      iter #   2 total cpu time :   173.7 secs   av.it.:   5.1
      thresh= 1.000E-02 alpha_mix =  0.700 |ddv_scf|^2 =  8.143E+00

      iter #   3 total cpu time :   175.0 secs   av.it.:   5.1
      thresh= 1.000E-02 alpha_mix =  0.700 |ddv_scf|^2 =  3.278E-05

      iter #   4 total cpu time :   176.2 secs   av.it.:   4.3
      thresh= 5.726E-04 alpha_mix =  0.700 |ddv_scf|^2 =  6.933E-09

      iter #   5 total cpu time :   177.7 secs   av.it.:   6.1
      thresh= 8.326E-06 alpha_mix =  0.700 |ddv_scf|^2 =  1.219E-06

      iter #   6 total cpu time :   178.8 secs   av.it.:   2.7
      thresh= 1.104E-04 alpha_mix =  0.700 |ddv_scf|^2 =  3.537E-10

      iter #   7 total cpu time :   180.1 secs   av.it.:   5.3
      thresh= 1.881E-06 alpha_mix =  0.700 |ddv_scf|^2 =  7.960E-12

      iter #   8 total cpu time :   181.5 secs   av.it.:   5.4
      thresh= 2.821E-07 alpha_mix =  0.700 |ddv_scf|^2 =  2.766E-13

     End of self-consistent calculation

     Convergence has been achieved 


     Representation #  2 mode #   2

     Self-consistent Calculation

      iter #   1 total cpu time :   183.3 secs   av.it.:   4.4
      thresh= 1.000E-02 alpha_mix =  0.700 |ddv_scf|^2 =  1.965E-01

      iter #   2 total cpu time :   184.7 secs   av.it.:   6.0
[...]
     kinetic-energy cut-off    =      30.0000  Ry
     charge density cut-off    =     120.0000  Ry
     convergence threshold     =      1.0E-12
     beta                      =       0.7000
     number of iterations used =            4
     Exchange-correlation      =  SLA  PW   PBX  PBC ( 1  4  3  4 0 0)


     celldm(1)=    6.12400  celldm(2)=    0.00000  celldm(3)=    0.00000
     celldm(4)=    0.00000  celldm(5)=    0.00000  celldm(6)=    0.00000

     crystal axes: (cart. coord. in units of alat)
               a(1) = (  0.5000  0.5000  0.5000 )  
               a(2) = ( -0.5000  0.5000  0.5000 )  
               a(3) = ( -0.5000 -0.5000  0.5000 )  

     reciprocal axes: (cart. coord. in units 2 pi/alat)
               b(1) = (  1.0000  0.0000  1.0000 )  
               b(2) = ( -1.0000  1.0000  0.0000 )  
               b(3) = (  0.0000 -1.0000  1.0000 )  


     Atoms inside the unit cell: 

     Cartesian axes

     site n.  atom      mass           positions (alat units)
        1     Al  26.9820   tau(    1) = (    0.00000    0.00000    0.00000  )

     Computing dynamical matrix for 
                    q = (   0.0000000   0.9166667  -0.0833333 )

      4 Sym.Ops. (no q -> -q+G )


     G cutoff =  113.9966  (    623 G-vectors)     FFT grid: ( 20, 20, 20)

     number of k points=  1008  gaussian smearing, width (Ry)=  0.0500

     PseudoPot. # 1 for Al read from file:
     /home/max/quantum_espresso/qe-6.1/pseudo/Al.pbe-n-kjpaw_psl.1.0.0.UPF
     MD5 check sum: dd5adf945272da8132fc805c9e56c2d6
     Pseudo is Projector augmented-wave + core cor, Zval =  3.0
     Generated using "atomic" code by A. Dal Corso  v.5.1
     Shape of augmentation charge: PSQ
     Using radial grid of 1135 points,  6 beta functions with: 
                l(1) =   0
                l(2) =   0
                l(3) =   1
                l(4) =   1
                l(5) =   2
                l(6) =   2
     Q(r) pseudized with 0 coefficients 


     Mode symmetry, C_2v (mm2)  point group:


     Atomic displacements:
     There are   3 irreducible representations

     Representation     1      1 modes -A_1  D_1  S_1  To be done

     Representation     2      1 modes -B_1  D_3  S_3  To be done

     Representation     3      1 modes -B_2  D_4  S_4  To be done



     Alpha used in Ewald sum =   1.4000
     PHONON       : 48m 5.52s CPU    51m20.86s WALL



     Representation #  1 mode #   1

     Self-consistent Calculation

      iter #   1 total cpu time :  3081.9 secs   av.it.:   4.2
      thresh= 1.000E-02 alpha_mix =  0.700 |ddv_scf|^2 =  2.330E-06

      iter #   2 total cpu time :  3082.9 secs   av.it.:   6.2
      thresh= 1.526E-04 alpha_mix =  0.700 |ddv_scf|^2 =  3.045E-07

      iter #   3 total cpu time :  3083.9 secs   av.it.:   6.1
      thresh= 5.518E-05 alpha_mix =  0.700 |ddv_scf|^2 =  1.055E-08

      iter #   4 total cpu time :  3084.9 secs   av.it.:   5.9
      thresh= 1.027E-05 alpha_mix =  0.700 |ddv_scf|^2 =  3.121E-10

      iter #   5 total cpu time :  3085.8 secs   av.it.:   5.9
      thresh= 1.767E-06 alpha_mix =  0.700 |ddv_scf|^2 =  1.231E-11

      iter #   6 total cpu time :  3086.8 secs   av.it.:   5.9
      thresh= 3.508E-07 alpha_mix =  0.700 |ddv_scf|^2 =  1.221E-14

     End of self-consistent calculation

     Convergence has been achieved 


     Representation #  2 mode #   2

     Self-consistent Calculation

      iter #   1 total cpu time :  3087.9 secs   av.it.:   3.9
      thresh= 1.000E-02 alpha_mix =  0.700 |ddv_scf|^2 =  1.503E-06

      iter #   2 total cpu time :  3088.9 secs   av.it.:   6.0
      thresh= 1.226E-04 alpha_mix =  0.700 |ddv_scf|^2 =  1.110E-07

      iter #   3 total cpu time :  3089.9 secs   av.it.:   6.0
      thresh= 3.331E-05 alpha_mix =  0.700 |ddv_scf|^2 =  7.231E-09

      iter #   4 total cpu time :  3090.9 secs   av.it.:   5.8
      thresh= 8.504E-06 alpha_mix =  0.700 |ddv_scf|^2 =  2.094E-10

      iter #   5 total cpu time :  3091.8 secs   av.it.:   5.4
      thresh= 1.447E-06 alpha_mix =  0.700 |ddv_scf|^2 =  9.934E-14

     End of self-consistent calculation

     Convergence has been achieved 


     Representation #  3 mode #   3

     Self-consistent Calculation

      iter #   1 total cpu time :  3092.9 secs   av.it.:   4.2
      thresh= 1.000E-02 alpha_mix =  0.700 |ddv_scf|^2 =  2.846E-06

      iter #   2 total cpu time :  3093.9 secs   av.it.:   6.2
      thresh= 1.687E-04 alpha_mix =  0.700 |ddv_scf|^2 =  3.351E-07

      iter #   3 total cpu time :  3094.9 secs   av.it.:   6.0
      thresh= 5.789E-05 alpha_mix =  0.700 |ddv_scf|^2 =  1.022E-08

      iter #   4 total cpu time :  3095.9 secs   av.it.:   5.9
      thresh= 1.011E-05 alpha_mix =  0.700 |ddv_scf|^2 =  2.692E-10

      iter #   5 total cpu time :  3096.8 secs   av.it.:   5.5
      thresh= 1.641E-06 alpha_mix =  0.700 |ddv_scf|^2 =  4.337E-13

     End of self-consistent calculation

     Convergence has been achieved 

     Number of q in the star =   12
     List of q in the star:
          1   0.000000000   0.916666667  -0.083333333
          2  -0.916666667   0.000000000  -0.083333333
          3   0.000000000  -0.916666667  -0.083333333
          4  -0.083333333   0.000000000  -0.916666667
          5   0.083333333   0.000000000  -0.916666667
          6   0.000000000   0.916666667   0.083333333
          7   0.000000000   0.083333333  -0.916666667
          8   0.083333333   0.916666667   0.000000000
          9   0.083333333  -0.916666667   0.000000000
         10  -0.083333333  -0.916666667   0.000000000
         11   0.916666667   0.000000000  -0.083333333
         12   0.916666667  -0.083333333   0.000000000

     Diagonalizing the dynamical matrix

     q = (    0.000000000   0.916666667  -0.083333333 ) 

 **************************************************************************
     freq (    1) =       7.868647 [THz] =     262.469826 [cm-1]
     freq (    2) =       7.953986 [THz] =     265.316420 [cm-1]
     freq (    3) =       8.111794 [THz] =     270.580306 [cm-1]
 **************************************************************************

     Mode symmetry, C_2v (mm2)  point group:

     freq (  1 -  1) =        262.5  [cm-1]   --> A_1  D_1  S_1      
     freq (  2 -  2) =        265.3  [cm-1]   --> B_1  D_3  S_3      
     freq (  3 -  3) =        270.6  [cm-1]   --> B_2  D_4  S_4      

     Calculation of q =    0.0000000   0.0000000  -1.0000000

   Info: using nr1, nr2, nr3 values from input

   Info: using nr1, nr2, nr3 values from input

     Parallelization info
     --------------------
     sticks:   dense  smooth     PW     G-vecs:    dense   smooth      PW
     Min          62      62     25                  622      622     170
     Max          63      63     26                  624      624     171
     Sum         249     249    103                 2491     2491     683



     bravais-lattice index     =            3
     lattice parameter (alat)  =       6.1240  a.u.
     unit-cell volume          =     114.8353 (a.u.)^3
     number of atoms/cell      =            1
     number of atomic types    =            1
     number of electrons       =         3.00
     number of Kohn-Sham states=            6
     kinetic-energy cutoff     =      30.0000  Ry
     charge density cutoff     =     120.0000  Ry
     Exchange-correlation      =  SLA  PW   PBX  PBC ( 1  4  3  4 0 0)

     celldm(1)=   6.124000  celldm(2)=   0.000000  celldm(3)=   0.000000
     celldm(4)=   0.000000  celldm(5)=   0.000000  celldm(6)=   0.000000

     crystal axes: (cart. coord. in units of alat)
               a(1) = (   0.500000   0.500000   0.500000 )  
               a(2) = (  -0.500000   0.500000   0.500000 )  
               a(3) = (  -0.500000  -0.500000   0.500000 )  

     reciprocal axes: (cart. coord. in units 2 pi/alat)
               b(1) = (  1.000000  0.000000  1.000000 )  
               b(2) = ( -1.000000  1.000000  0.000000 )  
               b(3) = (  0.000000 -1.000000  1.000000 )  


     PseudoPot. # 1 for Al read from file:
     /home/max/quantum_espresso/qe-6.1/pseudo/Al.pbe-n-kjpaw_psl.1.0.0.UPF
     MD5 check sum: dd5adf945272da8132fc805c9e56c2d6
     Pseudo is Projector augmented-wave + core cor, Zval =  3.0
     Generated using "atomic" code by A. Dal Corso  v.5.1
     Shape of augmentation charge: PSQ
     Using radial grid of 1135 points,  6 beta functions with: 
                l(1) =   0
                l(2) =   0
                l(3) =   1
                l(4) =   1
                l(5) =   2
                l(6) =   2
     Q(r) pseudized with 0 coefficients 


     atomic species   valence    mass     pseudopotential
        Al             3.00    26.98200     Al( 1.00)

     48 Sym. Ops., with inversion, found



   Cartesian axes

     site n.     atom                  positions (alat units)
         1           Al  tau(   1) = (   0.0000000   0.0000000   0.0000000  )

     number of k points=   136  gaussian smearing, width (Ry)=  0.0500

     Number of k-points >= 100: set verbosity='high' to print them.

     Dense  grid:     2491 G-vectors     FFT dimensions: (  20,  20,  20)

     Estimated max dynamical RAM per process >       0.32MB

     Estimated total allocated dynamical RAM >       1.26MB

     The potential is recalculated from file :
     ./_ph0/aluminium.bcc.save/charge-density.dat

     Starting wfc are    4 atomic +    2 random wfc
     Checking if some PAW data can be deallocated... 

     Band Structure Calculation
     Davidson diagonalization with overlap

     ethr =  3.33E-10,  avg # of iterations = 16.2

     total cpu time spent up to now is      896.7 secs

     End of band structure calculation

     Number of k-points >= 100: set verbosity='high' to print the bands.

     the Fermi energy is     7.5871 ev

     Writing output data file aluminium.bcc.save

                                                                                

     bravais-lattice index     =            3
     lattice parameter (alat)  =       6.1240  a.u.
     unit-cell volume          =     114.8353 (a.u.)^3
     number of atoms/cell      =            1
     number of atomic types    =            1
     kinetic-energy cut-off    =      30.0000  Ry
     charge density cut-off    =     120.0000  Ry
     convergence threshold     =      1.0E-12
     beta                      =       0.7000
     number of iterations used =            4
     Exchange-correlation      =  SLA  PW   PBX  PBC ( 1  4  3  4 0 0)


     celldm(1)=    6.12400  celldm(2)=    0.00000  celldm(3)=    0.00000
     celldm(4)=    0.00000  celldm(5)=    0.00000  celldm(6)=    0.00000

     crystal axes: (cart. coord. in units of alat)
               a(1) = (  0.5000  0.5000  0.5000 )  
               a(2) = ( -0.5000  0.5000  0.5000 )  
               a(3) = ( -0.5000 -0.5000  0.5000 )  

     reciprocal axes: (cart. coord. in units 2 pi/alat)
               b(1) = (  1.0000  0.0000  1.0000 )  
               b(2) = ( -1.0000  1.0000  0.0000 )  
               b(3) = (  0.0000 -1.0000  1.0000 )  


     Atoms inside the unit cell: 

     Cartesian axes

     site n.  atom      mass           positions (alat units)
        1     Al  26.9820   tau(    1) = (    0.00000    0.00000    0.00000  )

     Computing dynamical matrix for 
                    q = (   0.0000000   0.0000000  -1.0000000 )

     49 Sym.Ops. (with q -> -q+G )


     G cutoff =  113.9966  (    623 G-vectors)     FFT grid: ( 20, 20, 20)

     number of k points=   136  gaussian smearing, width (Ry)=  0.0500

     PseudoPot. # 1 for Al read from file:
     /home/max/quantum_espresso/qe-6.1/pseudo/Al.pbe-n-kjpaw_psl.1.0.0.UPF
     MD5 check sum: dd5adf945272da8132fc805c9e56c2d6
     Pseudo is Projector augmented-wave + core cor, Zval =  3.0
     Generated using "atomic" code by A. Dal Corso  v.5.1
     Shape of augmentation charge: PSQ
     Using radial grid of 1135 points,  6 beta functions with: 
                l(1) =   0
                l(2) =   0
                l(3) =   1
                l(4) =   1
                l(5) =   2
                l(6) =   2
     Q(r) pseudized with 0 coefficients 


     Mode symmetry, O_h (m-3m)  point group:


     Atomic displacements:
     There are   1 irreducible representations

     Representation     1      3 modes -T_1u G_15  G_4-  To be done



     Alpha used in Ewald sum =   1.4000
     PHONON       : 48m22.18s CPU    51m38.33s WALL



     Representation #  1 modes #   1  2  3

     Self-consistent Calculation

      iter #   1 total cpu time :  3099.9 secs   av.it.:   4.2
      thresh= 1.000E-02 alpha_mix =  0.700 |ddv_scf|^2 =  1.835E-07

      iter #   2 total cpu time :  3101.5 secs   av.it.:   7.0
      thresh= 4.284E-05 alpha_mix =  0.700 |ddv_scf|^2 =  1.403E-08

      iter #   3 total cpu time :  3103.1 secs   av.it.:   6.9
      thresh= 1.184E-05 alpha_mix =  0.700 |ddv_scf|^2 =  8.410E-10

      iter #   4 total cpu time :  3104.6 secs   av.it.:   6.7
      thresh= 2.900E-06 alpha_mix =  0.700 |ddv_scf|^2 =  2.408E-11

      iter #   5 total cpu time :  3106.2 secs   av.it.:   6.2
      thresh= 4.908E-07 alpha_mix =  0.700 |ddv_scf|^2 =  5.623E-15

     End of self-consistent calculation

     Convergence has been achieved 

     Number of q in the star =    1
     List of q in the star:
          1   0.000000000   0.000000000  -1.000000000

     Diagonalizing the dynamical matrix

     q = (    0.000000000   0.000000000  -1.000000000 ) 

 **************************************************************************
     freq (    1) =       8.035060 [THz] =     268.020740 [cm-1]
     freq (    2) =       8.035060 [THz] =     268.020740 [cm-1]
     freq (    3) =       8.035060 [THz] =     268.020740 [cm-1]
 **************************************************************************

     Mode symmetry, O_h (m-3m)  point group:

     freq (  1 -  3) =        268.0  [cm-1]   --> T_1u G_15  G_4-    

     init_run     :     15.42s CPU     15.61s WALL (      71 calls)
     electrons    :    743.37s CPU    784.16s WALL (      71 calls)

     Called by init_run:
     wfcinit      :      0.00s CPU      0.01s WALL (      71 calls)
     potinit      :      6.30s CPU      6.35s WALL (      71 calls)

     Called by electrons:
     c_bands      :    742.25s CPU    783.01s WALL (      71 calls)
     v_of_rho     :      0.12s CPU      0.10s WALL (      72 calls)
     newd         :      0.19s CPU      0.21s WALL (      72 calls)
     PAW_pot      :      6.23s CPU      6.26s WALL (      72 calls)

     Called by c_bands:
     init_us_2    :     63.28s CPU     69.34s WALL ( 1929209 calls)
     cegterg      :    686.96s CPU    724.29s WALL (  146407 calls)

     Called by sum_band:

     Called by *egterg:
     h_psi        :    939.32s CPU   1019.68s WALL (11082497 calls)
     s_psi        :    149.77s CPU    165.60s WALL (21130805 calls)
     g_psi        :      6.54s CPU      6.91s WALL ( 2109417 calls)
     cdiaghg      :    182.33s CPU    192.31s WALL ( 2241629 calls)

     Called by h_psi:
     h_psi:pot    :    924.15s CPU   1003.35s WALL (11082497 calls)
     h_psi:calbec :    105.58s CPU    114.60s WALL (11082497 calls)
     vloc_psi     :    715.59s CPU    776.31s WALL (11082497 calls)
     add_vuspsi   :     80.11s CPU     87.85s WALL (11082497 calls)

     General routines
     calbec       :    243.72s CPU    264.35s WALL (24403494 calls)
     fft          :      0.77s CPU      0.78s WALL (   23995 calls)
     ffts         :      3.74s CPU      4.01s WALL (  199475 calls)
     fftw         :    766.60s CPU    834.08s WALL (64469952 calls)
     davcio       :     28.25s CPU     31.25s WALL ( 7276383 calls)

     Parallel routines
     fft_scatter  :    300.94s CPU    330.21s WALL (64693422 calls)

     PHONON       : 48m29.98s CPU    51m46.23s WALL

     INITIALIZATION: 
     phq_setup    :      0.46s CPU      0.45s WALL (      72 calls)
     phq_init     :     97.27s CPU    100.77s WALL (      72 calls)

     phq_init     :     97.27s CPU    100.77s WALL (      72 calls)
     set_drhoc    :      8.60s CPU      8.64s WALL (     216 calls)
     init_vloc    :      0.08s CPU      0.08s WALL (      72 calls)
     init_us_1    :      6.21s CPU      6.23s WALL (      72 calls)
     newd         :      0.19s CPU      0.21s WALL (      72 calls)
     dvanqq       :      0.93s CPU      0.93s WALL (      72 calls)
     drho         :     57.70s CPU     60.06s WALL (      72 calls)

     DYNAMICAL MATRIX:
     dynmat0      :     23.68s CPU     24.23s WALL (      72 calls)
     phqscf       :   1955.70s CPU   2106.36s WALL (      72 calls)
     dynmatrix    :      0.06s CPU      0.12s WALL (      72 calls)

     phqscf       :   1955.70s CPU   2106.36s WALL (      72 calls)
     solve_linter :   1922.48s CPU   2071.99s WALL (     201 calls)
     drhodv       :     32.96s CPU     34.07s WALL (     201 calls)

     dynmat0      :     23.68s CPU     24.23s WALL (      72 calls)
     dynmat_us    :     17.74s CPU     18.26s WALL (      72 calls)
     d2ionq       :      0.01s CPU      0.01s WALL (      72 calls)
     dynmatcc     :      5.84s CPU      5.87s WALL (      72 calls)

     dynmat_us    :     17.74s CPU     18.26s WALL (      72 calls)
     addusdynmat  :      0.01s CPU      0.00s WALL (      72 calls)

     phqscf       :   1955.70s CPU   2106.36s WALL (      72 calls)
     solve_linter :   1922.48s CPU   2071.99s WALL (     201 calls)

     solve_linter :   1922.48s CPU   2071.99s WALL (     201 calls)
     dvqpsi_us    :     86.91s CPU     94.21s WALL (  198522 calls)
     ortho        :     63.64s CPU     70.56s WALL ( 1353847 calls)
     cgsolve      :    884.93s CPU    978.59s WALL ( 1353847 calls)
     incdrhoscf   :    105.92s CPU    117.81s WALL ( 1353847 calls)
     addusddens   :      5.02s CPU      5.25s WALL (    1512 calls)
     vpsifft      :     67.52s CPU     75.19s WALL ( 1155325 calls)
     dv_of_drho   :      0.54s CPU      0.56s WALL (    1383 calls)
     mix_pot      :      0.27s CPU      0.34s WALL (    1311 calls)
     ef_shift     :      0.00s CPU      0.01s WALL (       5 calls)
     localdos     :      0.01s CPU      0.01s WALL (       1 calls)
     psymdvscf    :      1.43s CPU      1.45s WALL (     950 calls)
     newdq        :      4.55s CPU      4.58s WALL (    1311 calls)
     adddvscf     :     31.46s CPU     34.97s WALL ( 1155325 calls)
     drhodvus     :      0.02s CPU      0.03s WALL (     201 calls)

     dvqpsi_us    :     86.91s CPU     94.21s WALL (  198522 calls)
     dvqpsi_us_on :     48.56s CPU     51.86s WALL (  198522 calls)

     cgsolve      :    884.93s CPU    978.59s WALL ( 1353847 calls)
     ch_psi       :    827.08s CPU    913.85s WALL ( 8694461 calls)

     ch_psi       :    827.08s CPU    913.85s WALL ( 8694461 calls)
     h_psi        :    939.32s CPU   1019.68s WALL (11082497 calls)
     last         :    163.86s CPU    180.31s WALL ( 8694461 calls)

     h_psi        :    939.32s CPU   1019.68s WALL (11082497 calls)
     add_vuspsi   :     80.11s CPU     87.85s WALL (11082497 calls)

     incdrhoscf   :    105.92s CPU    117.81s WALL ( 1353847 calls)
     addusdbec    :     33.37s CPU     36.64s WALL ( 1552369 calls)

     drhodvus     :      0.02s CPU      0.03s WALL (     201 calls)

      General routines
     calbec       :    243.72s CPU    264.35s WALL (24403494 calls)
     fft          :      0.77s CPU      0.78s WALL (   23995 calls)
     ffts         :      3.74s CPU      4.01s WALL (  199475 calls)
     fftw         :    766.60s CPU    834.08s WALL (64469952 calls)
     davcio       :     28.25s CPU     31.25s WALL ( 7276383 calls)
     write_rec    :      1.19s CPU      1.50s WALL (    1512 calls)


     PHONON       : 48m29.98s CPU    51m46.23s WALL


   This run was terminated on:  13: 3:31  31Oct2017            

=------------------------------------------------------------------------------=
   JOB DONE.
=------------------------------------------------------------------------------=
