
     Program PWSCF v.6.1 (svn rev. 13369) starts on 31Oct2017 at 12: 9:57 

     This program is part of the open-source Quantum ESPRESSO suite
     for quantum simulation of materials; please cite
         "P. Giannozzi et al., J. Phys.:Condens. Matter 21 395502 (2009);
          URL http://www.quantum-espresso.org", 
     in publications or presentations arising from this work. More details at
     http://www.quantum-espresso.org/quote

     Parallel version (MPI), running on     4 processors
     R & G space division:  proc/nbgrp/npool/nimage =       4
     Waiting for input...
     Reading input from standard input
     Message from routine read_cards :
     DEPRECATED: no units specified in ATOMIC_POSITIONS card
     Message from routine read_cards :
     ATOMIC_POSITIONS: units set to alat

     Current dimensions of program PWSCF are:
     Max number of different atomic species (ntypx) = 10
     Max number of k-points (npk) =  40000
     Max angular momentum in pseudopotentials (lmaxx) =  3
               file Al.pbe-n-kjpaw_psl.1.0.0.UPF: wavefunction(s)  3S 3P renormalized

     Subspace diagonalization in iterative solution of the eigenvalue problem:
     a serial algorithm will be used


     Parallelization info
     --------------------
     sticks:   dense  smooth     PW     G-vecs:    dense   smooth      PW
     Min          62      62     22                  622      622     132
     Max          63      63     23                  624      624     133
     Sum         249     249     91                 2491     2491     531



     bravais-lattice index     =            3
     lattice parameter (alat)  =       6.1240  a.u.
     unit-cell volume          =     114.8353 (a.u.)^3
     number of atoms/cell      =            1
     number of atomic types    =            1
     number of electrons       =         3.00
     number of Kohn-Sham states=            6
     kinetic-energy cutoff     =      30.0000  Ry
     charge density cutoff     =     120.0000  Ry
     convergence threshold     =      1.0E-08
     mixing beta               =       0.7000
     number of iterations used =            8  plain     mixing
     Exchange-correlation      =  SLA  PW   PBX  PBC ( 1  4  3  4 0 0)

     celldm(1)=   6.124000  celldm(2)=   0.000000  celldm(3)=   0.000000
     celldm(4)=   0.000000  celldm(5)=   0.000000  celldm(6)=   0.000000

     crystal axes: (cart. coord. in units of alat)
               a(1) = (   0.500000   0.500000   0.500000 )  
               a(2) = (  -0.500000   0.500000   0.500000 )  
               a(3) = (  -0.500000  -0.500000   0.500000 )  

     reciprocal axes: (cart. coord. in units 2 pi/alat)
               b(1) = (  1.000000  0.000000  1.000000 )  
               b(2) = ( -1.000000  1.000000  0.000000 )  
               b(3) = (  0.000000 -1.000000  1.000000 )  


     PseudoPot. # 1 for Al read from file:
     /home/max/quantum_espresso/qe-6.1/pseudo/Al.pbe-n-kjpaw_psl.1.0.0.UPF
     MD5 check sum: dd5adf945272da8132fc805c9e56c2d6
     Pseudo is Projector augmented-wave + core cor, Zval =  3.0
     Generated using "atomic" code by A. Dal Corso  v.5.1
     Shape of augmentation charge: PSQ
     Using radial grid of 1135 points,  6 beta functions with: 
                l(1) =   0
                l(2) =   0
                l(3) =   1
                l(4) =   1
                l(5) =   2
                l(6) =   2
     Q(r) pseudized with 0 coefficients 


     atomic species   valence    mass     pseudopotential
        Al             3.00    26.98200     Al( 1.00)

     48 Sym. Ops., with inversion, found



   Cartesian axes

     site n.     atom                  positions (alat units)
         1           Al  tau(   1) = (   0.0000000   0.0000000   0.0000000  )

     number of k points=    68  gaussian smearing, width (Ry)=  0.0500
                       cart. coord. in units 2pi/alat
        k(    1) = (   0.0000000   0.0000000   0.0833333), wk =   0.0069444
        k(    2) = (   0.0000000  -0.0833333   0.1666667), wk =   0.0277778
        k(    3) = (   0.0000000  -0.1666667   0.2500000), wk =   0.0277778
        k(    4) = (   0.0000000  -0.2500000   0.3333333), wk =   0.0277778
        k(    5) = (   0.0000000  -0.3333333   0.4166667), wk =   0.0277778
        k(    6) = (   0.0000000  -0.4166667   0.5000000), wk =   0.0277778
        k(    7) = (  -0.0833333   0.0833333   0.0833333), wk =   0.0092593
        k(    8) = (  -0.0833333  -0.0833333   0.2500000), wk =   0.0277778
        k(    9) = (  -0.0833333  -0.1666667   0.3333333), wk =   0.0555556
        k(   10) = (  -0.0833333  -0.2500000   0.4166667), wk =   0.0555556
        k(   11) = (  -0.0833333  -0.3333333   0.5000000), wk =   0.0555556
        k(   12) = (  -0.0833333   0.5833333  -0.4166667), wk =   0.0277778
        k(   13) = (  -0.1666667   0.1666667   0.0833333), wk =   0.0277778
        k(   14) = (  -0.1666667  -0.1666667   0.4166667), wk =   0.0277778
        k(   15) = (  -0.1666667  -0.2500000   0.5000000), wk =   0.0555556
        k(   16) = (  -0.1666667   0.6666667  -0.4166667), wk =   0.0555556
        k(   17) = (  -0.2500000   0.2500000   0.0833333), wk =   0.0277778
        k(   18) = (  -0.2500000   0.1666667   0.1666667), wk =   0.0277778
        k(   19) = (  -0.2500000   0.7500000  -0.4166667), wk =   0.0277778
        k(   20) = (  -0.2500000   0.6666667  -0.3333333), wk =   0.0277778
        k(   21) = (  -0.3333333   0.3333333   0.0833333), wk =   0.0277778
        k(   22) = (  -0.3333333   0.2500000   0.1666667), wk =   0.0555556
        k(   23) = (  -0.4166667   0.4166667   0.0833333), wk =   0.0277778
        k(   24) = (  -0.4166667   0.3333333   0.1666667), wk =   0.0555556
        k(   25) = (  -0.4166667   0.2500000   0.2500000), wk =   0.0277778
        k(   26) = (   0.5000000  -0.5000000   0.0833333), wk =   0.0138889
        k(   27) = (   0.5000000  -0.5833333   0.1666667), wk =   0.0555556
        k(   28) = (   0.5000000  -0.6666667   0.2500000), wk =   0.0555556
        k(   29) = (   0.4166667  -0.5833333   0.2500000), wk =   0.0277778
        k(   30) = (   0.4166667  -0.6666667   0.3333333), wk =   0.0277778
        k(   31) = (   0.0000000   0.0000000   0.2500000), wk =   0.0069444
        k(   32) = (   0.0000000  -0.0833333   0.3333333), wk =   0.0277778
        k(   33) = (   0.0000000  -0.1666667   0.4166667), wk =   0.0277778
        k(   34) = (   0.0000000  -0.2500000   0.5000000), wk =   0.0277778
        k(   35) = (   0.0000000  -0.3333333   0.5833333), wk =   0.0277778
        k(   36) = (  -0.0833333  -0.0833333   0.4166667), wk =   0.0277778
        k(   37) = (  -0.0833333  -0.1666667   0.5000000), wk =   0.0555556
        k(   38) = (  -0.0833333  -0.2500000   0.5833333), wk =   0.0555556
        k(   39) = (  -0.0833333   0.6666667  -0.3333333), wk =   0.0277778
        k(   40) = (  -0.1666667  -0.1666667   0.5833333), wk =   0.0277778
        k(   41) = (  -0.1666667   0.7500000  -0.3333333), wk =   0.0555556
        k(   42) = (  -0.2500000   0.2500000   0.2500000), wk =   0.0092593
        k(   43) = (  -0.2500000   0.7500000  -0.2500000), wk =   0.0092593
        k(   44) = (  -0.3333333   0.3333333   0.2500000), wk =   0.0277778
        k(   45) = (   0.5833333  -0.5833333   0.2500000), wk =   0.0277778
        k(   46) = (   0.5833333  -0.6666667   0.3333333), wk =   0.0277778
        k(   47) = (   0.5000000  -0.5000000   0.2500000), wk =   0.0138889
        k(   48) = (   0.5000000  -0.5833333   0.3333333), wk =   0.0555556
        k(   49) = (   0.4166667  -0.5833333   0.4166667), wk =   0.0092593
        k(   50) = (   0.0000000   0.0000000   0.4166667), wk =   0.0069444
        k(   51) = (   0.0000000  -0.0833333   0.5000000), wk =   0.0277778
        k(   52) = (   0.0000000  -0.1666667   0.5833333), wk =   0.0277778
        k(   53) = (   0.0000000  -0.2500000   0.6666667), wk =   0.0277778
        k(   54) = (  -0.0833333  -0.0833333   0.5833333), wk =   0.0277778
        k(   55) = (  -0.0833333  -0.1666667   0.6666667), wk =   0.0555556
        k(   56) = (  -0.0833333   0.7500000  -0.2500000), wk =   0.0277778
        k(   57) = (  -0.1666667   0.8333333  -0.2500000), wk =   0.0277778
        k(   58) = (   0.5833333  -0.5833333   0.4166667), wk =   0.0092593
        k(   59) = (   0.5000000  -0.5000000   0.4166667), wk =   0.0138889
        k(   60) = (   0.0000000   0.0000000   0.5833333), wk =   0.0069444
        k(   61) = (   0.0000000  -0.0833333   0.6666667), wk =   0.0277778
        k(   62) = (   0.0000000  -0.1666667   0.7500000), wk =   0.0277778
        k(   63) = (  -0.0833333  -0.0833333   0.7500000), wk =   0.0277778
        k(   64) = (  -0.0833333   0.8333333  -0.1666667), wk =   0.0277778
        k(   65) = (   0.0000000   0.0000000   0.7500000), wk =   0.0069444
        k(   66) = (   0.0000000  -0.0833333   0.8333333), wk =   0.0277778
        k(   67) = (  -0.0833333   0.9166667  -0.0833333), wk =   0.0092593
        k(   68) = (   0.0000000   0.0000000   0.9166667), wk =   0.0069444

     Dense  grid:     2491 G-vectors     FFT dimensions: (  20,  20,  20)

     Estimated max dynamical RAM per process >       0.98MB

     Estimated total allocated dynamical RAM >       3.94MB

     Initial potential from superposition of free atoms

     starting charge    2.99771, renormalised to    3.00000
     Starting wfc are    4 randomized atomic wfcs +    2 random wfc
     Checking if some PAW data can be deallocated... 

     total cpu time spent up to now is        0.5 secs

     per-process dynamical memory:     9.2 Mb

     Self-consistent Calculation

     iteration #  1     ecut=    30.00 Ry     beta=0.70
     Davidson diagonalization with overlap
     ethr =  1.00E-02,  avg # of iterations =  4.8

     Threshold (ethr) on eigenvalues was too large:
     Diagonalizing with lowered threshold

     Davidson diagonalization with overlap
     ethr =  1.70E-04,  avg # of iterations =  1.9

     total cpu time spent up to now is        0.8 secs

     total energy              =     -39.49948202 Ry
     Harris-Foulkes estimate   =     -39.50080684 Ry
     estimated scf accuracy    <       0.00505048 Ry

     iteration #  2     ecut=    30.00 Ry     beta=0.70
     Davidson diagonalization with overlap
     ethr =  1.68E-04,  avg # of iterations =  1.0

     total cpu time spent up to now is        1.0 secs

     total energy              =     -39.49945068 Ry
     Harris-Foulkes estimate   =     -39.49954234 Ry
     estimated scf accuracy    <       0.00032923 Ry

     iteration #  3     ecut=    30.00 Ry     beta=0.70
     Davidson diagonalization with overlap
     ethr =  1.10E-05,  avg # of iterations =  1.6

     total cpu time spent up to now is        1.1 secs

     total energy              =     -39.49946186 Ry
     Harris-Foulkes estimate   =     -39.49946184 Ry
     estimated scf accuracy    <       0.00000029 Ry

     iteration #  4     ecut=    30.00 Ry     beta=0.70
     Davidson diagonalization with overlap
     ethr =  9.57E-09,  avg # of iterations =  3.0

     total cpu time spent up to now is        1.3 secs

     total energy              =     -39.49946386 Ry
     Harris-Foulkes estimate   =     -39.49946389 Ry
     estimated scf accuracy    <       0.00000004 Ry

     iteration #  5     ecut=    30.00 Ry     beta=0.70
     Davidson diagonalization with overlap
     ethr =  1.47E-09,  avg # of iterations =  1.1

     total cpu time spent up to now is        1.5 secs

     End of self-consistent calculation

          k = 0.0000 0.0000 0.0833 (   321 PWs)   bands (ev):

    -3.2323  19.5356  19.5356  20.7593  21.2174  22.2853

          k = 0.0000-0.0833 0.1667 (   325 PWs)   bands (ev):

    -2.8410  16.8129  17.9972  20.0085  20.1726  21.2312

          k = 0.0000-0.1667 0.2500 (   326 PWs)   bands (ev):

    -2.0616  13.4754  16.6944  18.8113  18.9173  20.8255

          k = 0.0000-0.2500 0.3333 (   321 PWs)   bands (ev):

    -0.9002  10.2912  15.6983  17.8207  17.9166  20.1885

          k = 0.0000-0.3333 0.4167 (   316 PWs)   bands (ev):

     0.6341   7.3866  15.0270  17.1425  17.2348  19.6380

          k = 0.0000-0.4167 0.5000 (   320 PWs)   bands (ev):

     2.5238   4.8079  14.6894  16.8007  16.8903  19.3371

          k =-0.0833 0.0833 0.0833 (   321 PWs)   bands (ev):

    -3.0365  18.4517  18.5996  18.5996  22.2925  22.2925

          k =-0.0833-0.0833 0.2500 (   331 PWs)   bands (ev):

    -2.2561  15.1840  15.4071  19.0579  20.0217  20.3447

          k =-0.0833-0.1667 0.3333 (   324 PWs)   bands (ev):

    -1.2863  12.0520  14.1070  18.0341  19.1250  20.7441

          k =-0.0833-0.2500 0.4167 (   317 PWs)   bands (ev):

     0.0607   9.0207  13.2323  17.2378  18.3058  21.3131

          k =-0.0833-0.3333 0.5000 (   315 PWs)   bands (ev):

     1.7735   6.2825  12.7049  16.7516  17.7870  21.4097

          k =-0.0833 0.5833-0.4167 (   315 PWs)   bands (ev):

     3.6597   4.0529  12.5286  16.5888  17.6106  21.3636

          k =-0.1667 0.1667 0.0833 (   331 PWs)   bands (ev):

    -2.4508  15.2006  17.1399  17.1781  21.4292  22.0806

          k =-0.1667-0.1667 0.4167 (   320 PWs)   bands (ev):

    -0.1309  10.7565  11.2494  17.2410  19.7015  20.2212

          k =-0.1667-0.2500 0.5000 (   315 PWs)   bands (ev):

     1.3952   8.0943  10.3217  16.6206  19.2887  21.2440

          k =-0.1667 0.6667-0.4167 (   313 PWs)   bands (ev):

     3.2725   5.5473   9.9494  16.2984  18.9689  22.6782

          k =-0.2500 0.2500 0.0833 (   326 PWs)   bands (ev):

    -1.4798  11.8990  15.9640  16.0379  20.4331  21.1527

          k =-0.2500 0.1667 0.1667 (   323 PWs)   bands (ev):

    -1.6735  13.6536  14.0101  15.9295  22.2632  22.4128

          k =-0.2500 0.7500-0.4167 (   320 PWs)   bands (ev):

     3.0897   7.3047   7.8653  16.1653  20.5645  21.0343

          k =-0.2500 0.6667-0.3333 (   314 PWs)   bands (ev):

     4.9351   5.3484   7.4546  16.0068  20.6149  22.5164

          k =-0.3333 0.3333 0.0833 (   318 PWs)   bands (ev):

    -0.1310   8.8462  15.0703  15.2374  19.6363  20.4252

          k =-0.3333 0.2500 0.1667 (   321 PWs)   bands (ev):

    -0.5151  10.6346  12.8059  14.9381  21.5525  22.7842

          k =-0.4167 0.4167 0.0833 (   318 PWs)   bands (ev):

     1.5842   6.0997  14.5274  14.7531  19.1391  19.9629

          k =-0.4167 0.3333 0.1667 (   321 PWs)   bands (ev):

     1.0151   7.7477  12.0884  14.2604  20.9361  22.6818

          k =-0.4167 0.2500 0.2500 (   320 PWs)   bands (ev):

     0.8248   9.4941  10.0318  14.1053  22.6267  22.7378

          k = 0.5000-0.5000 0.0833 (   320 PWs)   bands (ev):

     3.4776   3.8614  14.3455  14.5911  18.9710  19.8046

          k = 0.5000-0.5833 0.1667 (   317 PWs)   bands (ev):

     2.8987   5.1796  11.7294  13.9180  20.6144  22.4991

          k = 0.5000-0.6667 0.2500 (   319 PWs)   bands (ev):

     2.5277   7.0005   9.2587  13.5926  22.2806  23.9753

          k = 0.4167-0.5833 0.2500 (   314 PWs)   bands (ev):

     4.3884   4.8089   9.0660  13.4200  22.1341  24.8189

          k = 0.4167-0.6667 0.3333 (   315 PWs)   bands (ev):

     4.3808   6.3944   6.9677  13.2504  23.8611  23.9462

          k = 0.0000 0.0000 0.2500 (   325 PWs)   bands (ev):

    -2.4508  16.3547  16.3547  18.5375  18.8355  21.5273

          k = 0.0000-0.0833 0.3333 (   319 PWs)   bands (ev):

    -1.6734  13.7230  15.0032  17.2958  18.5606  21.0884

          k = 0.0000-0.1667 0.4167 (   319 PWs)   bands (ev):

    -0.5150  10.6254  13.9813  16.2751  19.3347  20.2156

          k = 0.0000-0.2500 0.5000 (   314 PWs)   bands (ev):

     1.0153   7.7456  13.2974  15.5676  19.5720  20.2950

          k = 0.0000-0.3333 0.5833 (   318 PWs)   bands (ev):

     2.8988   5.1792  12.9549  15.2085  19.2413  20.8587

          k =-0.0833-0.0833 0.4167 (   321 PWs)   bands (ev):

    -0.7074  12.3305  12.6722  17.0833  17.6047  20.8852

          k =-0.0833-0.1667 0.5000 (   317 PWs)   bands (ev):

     0.6344   9.5311  11.6472  16.4510  18.3710  20.2609

          k =-0.0833-0.2500 0.5833 (   318 PWs)   bands (ev):

     2.3399   6.8268  11.1087  15.9412  19.2528  20.3228

          k =-0.0833 0.6667-0.3333 (   317 PWs)   bands (ev):

     4.2062   4.6227  10.9298  15.7678  19.3006  21.6658

          k =-0.1667-0.1667 0.5833 (   315 PWs)   bands (ev):

     2.1520   8.5730   9.1017  17.5200  17.8158  19.8128

          k =-0.1667 0.7500-0.3333 (   309 PWs)   bands (ev):

     4.0160   6.2689   8.5149  17.3307  18.7950  19.9438

          k =-0.2500 0.2500 0.2500 (   324 PWs)   bands (ev):

    -0.7076  12.4049  12.4049  13.1158  24.4009  24.4009

          k =-0.2500 0.7500-0.2500 (   306 PWs)   bands (ev):

     5.8456   5.8456   6.5988  18.4077  19.1270  19.1270

          k =-0.3333 0.3333 0.2500 (   320 PWs)   bands (ev):

     0.6341   9.5410  11.5007  12.0970  24.1743  24.3315

          k = 0.5833-0.5833 0.2500 (   322 PWs)   bands (ev):

     2.3396   6.8290  10.9552  11.5594  23.8613  24.0389

          k = 0.5833-0.6667 0.3333 (   322 PWs)   bands (ev):

     2.1517   8.5853   9.0979  11.1569  25.4556  25.5656

          k = 0.5000-0.5000 0.2500 (   318 PWs)   bands (ev):

     4.2061   4.6233  10.7730  11.3812  23.7374  23.9285

          k = 0.5000-0.5833 0.3333 (   319 PWs)   bands (ev):

     4.0161   6.2709   8.5179  10.7851  25.4256  26.4173

          k = 0.4167-0.5833 0.4167 (   318 PWs)   bands (ev):

     5.8474   5.8474   6.5990  10.5940  26.7601  27.1095

          k = 0.0000 0.0000 0.4167 (   309 PWs)   bands (ev):

    -0.9000  13.6315  13.6315  15.4290  16.4200  23.0558

          k = 0.0000-0.0833 0.5000 (   318 PWs)   bands (ev):

     0.2524  11.2424  12.6002  14.7171  16.2801  22.9026

          k = 0.0000-0.1667 0.5833 (   314 PWs)   bands (ev):

     1.7744   8.4511  11.9124  14.0779  17.4423  22.3427

          k = 0.0000-0.2500 0.6667 (   315 PWs)   bands (ev):

     3.6456   5.9158  11.5684  13.7238  19.0584  20.9397

          k =-0.0833-0.0833 0.5833 (   316 PWs)   bands (ev):

     1.5853  10.1698  10.5649  14.8391  15.6685  22.5808

          k =-0.0833-0.1667 0.6667 (   316 PWs)   bands (ev):

     3.2781   7.7129   9.8659  14.6455  16.7647  20.6471

          k =-0.0833 0.7500-0.2500 (   313 PWs)   bands (ev):

     5.1166   5.5550   9.6810  14.4909  18.3992  18.7375

          k =-0.1667 0.8333-0.2500 (   317 PWs)   bands (ev):

     5.1176   7.1163   7.6638  16.0447  16.6049  18.4445

          k = 0.5833-0.5833 0.4167 (   324 PWs)   bands (ev):

     3.8353   8.0384   8.0384   8.9743  27.7398  27.7398

          k = 0.5000-0.5000 0.4167 (   320 PWs)   bands (ev):

     5.6650   6.0682   7.8560   8.5921  28.0701  28.3218

          k = 0.0000 0.0000 0.5833 (   317 PWs)   bands (ev):

     1.3958  11.5651  11.5651  13.0801  14.3769  22.9307

          k = 0.0000-0.0833 0.6667 (   321 PWs)   bands (ev):

     2.9050   9.4509  10.8758  12.8129  14.5272  20.4283

          k = 0.0000-0.1667 0.7500 (   320 PWs)   bands (ev):

     4.7569   7.0001  10.5314  12.5492  16.0232  18.1356

          k =-0.0833-0.0833 0.7500 (   317 PWs)   bands (ev):

     4.5784   8.7251   9.1442  13.3381  14.2299  17.9620

          k =-0.0833 0.8333-0.1667 (   317 PWs)   bands (ev):

     6.3882   6.8077   8.7996  13.4970  15.3041  16.1619

          k = 0.0000 0.0000 0.7500 (   322 PWs)   bands (ev):

     4.3955  10.1861  10.1861  11.5095  12.8831  17.7920

          k = 0.0000-0.0833 0.8333 (   319 PWs)   bands (ev):

     6.2177   8.3768   9.8417  11.6392  13.3214  15.4985

          k =-0.0833 0.9167-0.0833 (   315 PWs)   bands (ev):

     8.0020   8.0020   8.5738  12.5874  12.5874  14.1067

          k = 0.0000 0.0000 0.9167 (   310 PWs)   bands (ev):

     7.9775   9.4974   9.4974  10.7232  11.6661  13.4572

     the Fermi energy is     7.5870 ev

!    total energy              =     -39.49946386 Ry
     Harris-Foulkes estimate   =     -39.49946386 Ry
     estimated scf accuracy    <          4.5E-10 Ry

     total all-electron energy =      -485.642245 Ry

     The total energy is the sum of the following terms:

     one-electron contribution =       3.10470821 Ry
     hartree contribution      =       0.00308315 Ry
     xc contribution           =      -2.57350851 Ry
     ewald contribution        =      -5.34831831 Ry
     one-center paw contrib.   =     -34.67855367 Ry
     smearing contrib. (-TS)   =      -0.00687473 Ry

     convergence has been achieved in   5 iterations

     Forces acting on atoms (cartesian axes, Ry/au):

     atom    1 type  1   force =     0.00000000    0.00000000    0.00000000

     Total force =     0.000000     Total SCF correction =     0.000000


     Computing stress (Cartesian axis) and pressure

          total   stress  (Ry/bohr**3)                   (kbar)     P=   -1.02
  -0.00000692   0.00000000  -0.00000000         -1.02      0.00     -0.00
   0.00000000  -0.00000692  -0.00000000          0.00     -1.02     -0.00
  -0.00000000   0.00000000  -0.00000692         -0.00      0.00     -1.02


     Writing output data file aluminium.bcc.save

     init_run     :      0.23s CPU      0.25s WALL (       1 calls)
     electrons    :      0.95s CPU      1.02s WALL (       1 calls)
     forces       :      0.02s CPU      0.02s WALL (       1 calls)
     stress       :      0.07s CPU      0.07s WALL (       1 calls)

     Called by init_run:
     wfcinit      :      0.02s CPU      0.02s WALL (       1 calls)
     potinit      :      0.08s CPU      0.09s WALL (       1 calls)

     Called by electrons:
     c_bands      :      0.41s CPU      0.43s WALL (       6 calls)
     sum_band     :      0.09s CPU      0.10s WALL (       6 calls)
     v_of_rho     :      0.01s CPU      0.01s WALL (       6 calls)
     newd         :      0.02s CPU      0.02s WALL (       6 calls)
     PAW_pot      :      0.50s CPU      0.55s WALL (       6 calls)
     mix_rho      :      0.00s CPU      0.00s WALL (       6 calls)

     Called by c_bands:
     init_us_2    :      0.04s CPU      0.05s WALL (    1020 calls)
     cegterg      :      0.38s CPU      0.38s WALL (     408 calls)

     Called by sum_band:
     sum_band:bec :      0.00s CPU      0.00s WALL (     408 calls)
     addusdens    :      0.02s CPU      0.02s WALL (       6 calls)

     Called by *egterg:
     h_psi        :      0.22s CPU      0.24s WALL (    1388 calls)
     s_psi        :      0.02s CPU      0.02s WALL (    1388 calls)
     g_psi        :      0.00s CPU      0.00s WALL (     912 calls)
     cdiaghg      :      0.09s CPU      0.08s WALL (    1252 calls)

     Called by h_psi:
     h_psi:pot    :      0.22s CPU      0.23s WALL (    1388 calls)
     h_psi:calbec :      0.01s CPU      0.02s WALL (    1388 calls)
     vloc_psi     :      0.18s CPU      0.19s WALL (    1388 calls)
     add_vuspsi   :      0.02s CPU      0.02s WALL (    1388 calls)

     General routines
     calbec       :      0.03s CPU      0.04s WALL (    2136 calls)
     fft          :      0.00s CPU      0.00s WALL (     105 calls)
     fftw         :      0.20s CPU      0.19s WALL (   15564 calls)
     davcio       :      0.00s CPU      0.00s WALL (      68 calls)

     Parallel routines
     fft_scatter  :      0.07s CPU      0.07s WALL (   15669 calls)

     PWSCF        :     1.58s CPU         1.67s WALL


   This run was terminated on:  12: 9:59  31Oct2017            

=------------------------------------------------------------------------------=
   JOB DONE.
=------------------------------------------------------------------------------=
