
     Program PHONON v.6.1 (svn rev. 13369) starts on 31Oct2017 at 14: 4: 6 

     This program is part of the open-source Quantum ESPRESSO suite
     for quantum simulation of materials; please cite
         "P. Giannozzi et al., J. Phys.:Condens. Matter 21 395502 (2009);
          URL http://www.quantum-espresso.org", 
     in publications or presentations arising from this work. More details at
     http://www.quantum-espresso.org/quote

     Parallel version (MPI), running on     4 processors
     R & G space division:  proc/nbgrp/npool/nimage =       4

     Reading data from directory:
     ./aluminium.bcc.save

   Info: using nr1, nr2, nr3 values from input

   Info: using nr1, nr2, nr3 values from input

     IMPORTANT: XC functional enforced from input :
     Exchange-correlation      =  SLA  PW   PBX  PBC ( 1  4  3  4 0 0)
     Any further DFT definition will be discarded
     Please, verify this is what you really want

               file Al.pbe-n-kjpaw_psl.1.0.0.UPF: wavefunction(s)  3S 3P renormalized

     Parallelization info
     --------------------
     sticks:   dense  smooth     PW     G-vecs:    dense   smooth      PW
     Min          84      84     29                  981      981     191
     Max          85      85     30                  982      982     192
     Sum         337     337    117                 3925     3925     767



     Dynamical matrices for (12,12,12)  uniform grid of q-points
     (  72q-points):
       N         xq(1)         xq(2)         xq(3) 
       1   0.000000000   0.000000000   0.000000000
       2   0.000000000  -0.083333333   0.083333333
       3   0.000000000  -0.166666667   0.166666667
       4   0.000000000  -0.250000000   0.250000000
       5   0.000000000  -0.333333333   0.333333333
       6   0.000000000  -0.416666667   0.416666667
       7   0.000000000   0.500000000  -0.500000000
       8  -0.083333333  -0.083333333   0.166666667
       9  -0.083333333  -0.166666667   0.250000000
      10  -0.083333333  -0.250000000   0.333333333
      11  -0.083333333  -0.333333333   0.416666667
      12  -0.083333333   0.583333333  -0.500000000
      13  -0.166666667  -0.166666667   0.333333333
      14  -0.166666667  -0.250000000   0.416666667
      15  -0.166666667   0.666666667  -0.500000000
      16  -0.166666667   0.583333333  -0.416666667
      17  -0.250000000   0.750000000  -0.500000000
      18  -0.250000000   0.666666667  -0.416666667
      19  -0.333333333   0.666666667  -0.333333333
      20   0.000000000   0.000000000   0.166666667
      21   0.000000000  -0.083333333   0.250000000
      22   0.000000000  -0.166666667   0.333333333
      23   0.000000000  -0.250000000   0.416666667
      24   0.000000000  -0.333333333   0.500000000
      25   0.000000000   0.583333333  -0.416666667
      26  -0.083333333  -0.083333333   0.333333333
      27  -0.083333333  -0.166666667   0.416666667
      28  -0.083333333  -0.250000000   0.500000000
      29  -0.083333333   0.666666667  -0.416666667
      30  -0.166666667   0.166666667   0.166666667
      31  -0.166666667  -0.166666667   0.500000000
      32  -0.166666667   0.750000000  -0.416666667
      33  -0.166666667   0.666666667  -0.333333333
      34  -0.250000000   0.250000000   0.166666667
      35  -0.250000000   0.750000000  -0.333333333
      36  -0.333333333   0.333333333   0.166666667
      37  -0.333333333   0.250000000   0.250000000
      38   0.583333333  -0.583333333   0.166666667
      39   0.583333333  -0.666666667   0.250000000
      40   0.500000000  -0.500000000   0.166666667
      41   0.500000000  -0.583333333   0.250000000
      42   0.500000000  -0.666666667   0.333333333
      43   0.416666667  -0.583333333   0.333333333
      44   0.000000000   0.000000000   0.333333333
      45   0.000000000  -0.083333333   0.416666667
      46   0.000000000  -0.166666667   0.500000000
      47   0.000000000  -0.250000000   0.583333333
      48   0.000000000   0.666666667  -0.333333333
      49  -0.083333333  -0.083333333   0.500000000
      50  -0.083333333  -0.166666667   0.583333333
      51  -0.083333333   0.750000000  -0.333333333
      52  -0.166666667   0.833333333  -0.333333333
      53  -0.166666667   0.750000000  -0.250000000
      54   0.666666667  -0.666666667   0.333333333
      55   0.583333333  -0.583333333   0.333333333
      56   0.500000000  -0.500000000   0.333333333
      57   0.500000000  -0.583333333   0.416666667
      58   0.000000000   0.000000000   0.500000000
      59   0.000000000  -0.083333333   0.583333333
      60   0.000000000  -0.166666667   0.666666667
      61   0.000000000   0.750000000  -0.250000000
      62  -0.083333333  -0.083333333   0.666666667
      63  -0.083333333   0.833333333  -0.250000000
      64  -0.166666667   0.833333333  -0.166666667
      65   0.500000000  -0.500000000   0.500000000
      66   0.000000000   0.000000000   0.666666667
      67   0.000000000  -0.083333333   0.750000000
      68   0.000000000   0.833333333  -0.166666667
      69  -0.083333333   0.916666667  -0.166666667
      70   0.000000000   0.000000000   0.833333333
      71   0.000000000   0.916666667  -0.083333333
      72   0.000000000   0.000000000  -1.000000000

     Calculation of q =    0.0000000   0.0000000   0.0000000

                                                                                

     bravais-lattice index     =            3
     lattice parameter (alat)  =       6.1240  a.u.
     unit-cell volume          =     114.8353 (a.u.)^3
     number of atoms/cell      =            1
     number of atomic types    =            1
     kinetic-energy cut-off    =      40.0000  Ry
     charge density cut-off    =     160.0000  Ry
     convergence threshold     =      1.0E-12
     beta                      =       0.7000
     number of iterations used =            4
     Exchange-correlation      =  SLA  PW   PBX  PBC ( 1  4  3  4 0 0)


     celldm(1)=    6.12400  celldm(2)=    0.00000  celldm(3)=    0.00000
     celldm(4)=    0.00000  celldm(5)=    0.00000  celldm(6)=    0.00000

     crystal axes: (cart. coord. in units of alat)
               a(1) = (  0.5000  0.5000  0.5000 )  
               a(2) = ( -0.5000  0.5000  0.5000 )  
               a(3) = ( -0.5000 -0.5000  0.5000 )  

     reciprocal axes: (cart. coord. in units 2 pi/alat)
               b(1) = (  1.0000  0.0000  1.0000 )  
               b(2) = ( -1.0000  1.0000  0.0000 )  
               b(3) = (  0.0000 -1.0000  1.0000 )  


     Atoms inside the unit cell: 

     Cartesian axes

     site n.  atom      mass           positions (alat units)
        1     Al  26.9820   tau(    1) = (    0.00000    0.00000    0.00000  )

     Computing dynamical matrix for 
                    q = (   0.0000000   0.0000000   0.0000000 )

     49 Sym.Ops. (with q -> -q+G )


     G cutoff =  151.9955  (    981 G-vectors)     FFT grid: ( 24, 24, 24)

     number of k points=   250  gaussian smearing, width (Ry)=  0.0500

     PseudoPot. # 1 for Al read from file:
     /home/max/quantum_espresso/qe-6.1/pseudo/Al.pbe-n-kjpaw_psl.1.0.0.UPF
     MD5 check sum: dd5adf945272da8132fc805c9e56c2d6
     Pseudo is Projector augmented-wave + core cor, Zval =  3.0
     Generated using "atomic" code by A. Dal Corso  v.5.1
     Shape of augmentation charge: PSQ
     Using radial grid of 1135 points,  6 beta functions with: 
                l(1) =   0
                l(2) =   0
                l(3) =   1
                l(4) =   1
                l(5) =   2
                l(6) =   2
     Q(r) pseudized with 0 coefficients 


     Mode symmetry, O_h (m-3m)  point group:


     Atomic displacements:
     There are   1 irreducible representations

     Representation     1      3 modes -T_1u G_15  G_4-  To be done



     Alpha used in Ewald sum =   1.8000
     PHONON       :     2.11s CPU         2.14s WALL



     Representation #  1 modes #   1  2  3

     Self-consistent Calculation

     Pert. #  1: Fermi energy shift (Ry) =    -5.2560E-25    -1.5046E-36
     Pert. #  2: Fermi energy shift (Ry) =    -4.4806E-25     3.2600E-36
     Pert. #  3: Fermi energy shift (Ry) =     9.0473E-26    -7.5232E-37

      iter #   1 total cpu time :     5.1 secs   av.it.:   3.6
      thresh= 1.000E-02 alpha_mix =  0.700 |ddv_scf|^2 =  4.550E-08

     Pert. #  1: Fermi energy shift (Ry) =     5.7730E-25    -3.6734E-40
     Pert. #  2: Fermi energy shift (Ry) =     5.0406E-25     6.1224E-40
     Pert. #  3: Fermi energy shift (Ry) =    -8.2933E-26     4.8979E-40

      iter #   2 total cpu time :     8.1 secs   av.it.:   6.7
      thresh= 2.133E-05 alpha_mix =  0.700 |ddv_scf|^2 =  2.814E-09

     Pert. #  1: Fermi energy shift (Ry) =    -2.7573E-25     7.6530E-40
     Pert. #  2: Fermi energy shift (Ry) =    -2.4557E-25     4.2857E-40
     Pert. #  3: Fermi energy shift (Ry) =     5.6007E-26     1.2245E-40

      iter #   3 total cpu time :    11.2 secs   av.it.:   6.7
      thresh= 5.305E-06 alpha_mix =  0.700 |ddv_scf|^2 =  4.386E-11

     Pert. #  1: Fermi energy shift (Ry) =    -7.5825E-25    -1.8367E-40
     Pert. #  2: Fermi energy shift (Ry) =     1.3614E-24     3.0612E-41
     Pert. #  3: Fermi energy shift (Ry) =    -1.2925E-25     5.3571E-41

      iter #   4 total cpu time :    14.3 secs   av.it.:   6.6
      thresh= 6.623E-07 alpha_mix =  0.700 |ddv_scf|^2 =  8.371E-14

     End of self-consistent calculation

     Convergence has been achieved 

     Number of q in the star =    1
     List of q in the star:
          1   0.000000000   0.000000000   0.000000000

     Diagonalizing the dynamical matrix

     q = (    0.000000000   0.000000000   0.000000000 ) 

 **************************************************************************
     freq (    1) =      -0.129089 [THz] =      -4.305950 [cm-1]
     freq (    2) =      -0.129089 [THz] =      -4.305950 [cm-1]
     freq (    3) =      -0.129089 [THz] =      -4.305950 [cm-1]
 **************************************************************************

     Mode symmetry, O_h (m-3m)  point group:

     freq (  1 -  3) =         -4.3  [cm-1]   --> T_1u G_15  G_4- I  

     Calculation of q =    0.0000000  -0.0833333   0.0833333

   Info: using nr1, nr2, nr3 values from input

   Info: using nr1, nr2, nr3 values from input

     Parallelization info
     --------------------
     sticks:   dense  smooth     PW     G-vecs:    dense   smooth      PW
     Min          84      84     29                  981      981     197
     Max          85      85     30                  982      982     199
     Sum         337     337    117                 3925     3925     791



     bravais-lattice index     =            3
     lattice parameter (alat)  =       6.1240  a.u.
     unit-cell volume          =     114.8353 (a.u.)^3
     number of atoms/cell      =            1
     number of atomic types    =            1
     number of electrons       =         3.00
     number of Kohn-Sham states=            6
     kinetic-energy cutoff     =      40.0000  Ry
     charge density cutoff     =     160.0000  Ry
     Exchange-correlation      =  SLA  PW   PBX  PBC ( 1  4  3  4 0 0)

     celldm(1)=   6.124000  celldm(2)=   0.000000  celldm(3)=   0.000000
     celldm(4)=   0.000000  celldm(5)=   0.000000  celldm(6)=   0.000000

     crystal axes: (cart. coord. in units of alat)
               a(1) = (   0.500000   0.500000   0.500000 )  
               a(2) = (  -0.500000   0.500000   0.500000 )  
               a(3) = (  -0.500000  -0.500000   0.500000 )  

     reciprocal axes: (cart. coord. in units 2 pi/alat)
               b(1) = (  1.000000  0.000000  1.000000 )  
               b(2) = ( -1.000000  1.000000  0.000000 )  
               b(3) = (  0.000000 -1.000000  1.000000 )  


     PseudoPot. # 1 for Al read from file:
     /home/max/quantum_espresso/qe-6.1/pseudo/Al.pbe-n-kjpaw_psl.1.0.0.UPF
     MD5 check sum: dd5adf945272da8132fc805c9e56c2d6
     Pseudo is Projector augmented-wave + core cor, Zval =  3.0
     Generated using "atomic" code by A. Dal Corso  v.5.1
     Shape of augmentation charge: PSQ
     Using radial grid of 1135 points,  6 beta functions with: 
                l(1) =   0
                l(2) =   0
                l(3) =   1
                l(4) =   1
                l(5) =   2
                l(6) =   2
     Q(r) pseudized with 0 coefficients 


     atomic species   valence    mass     pseudopotential
        Al             3.00    26.98200     Al( 1.00)

     48 Sym. Ops., with inversion, found



   Cartesian axes

     site n.     atom                  positions (alat units)
         1           Al  tau(   1) = (   0.0000000   0.0000000   0.0000000  )

     number of k points=  4400  gaussian smearing, width (Ry)=  0.0500

     Number of k-points >= 100: set verbosity='high' to print them.

     Dense  grid:     3925 G-vectors     FFT dimensions: (  24,  24,  24)

     Estimated max dynamical RAM per process >       0.50MB

     Estimated total allocated dynamical RAM >       2.01MB

     The potential is recalculated from file :
     ./_ph0/aluminium.bcc.save/charge-density.dat

     Starting wfc are    4 atomic +    2 random wfc
     Checking if some PAW data can be deallocated... 

     Band Structure Calculation
     Davidson diagonalization with overlap

     ethr =  3.33E-10,  avg # of iterations = 16.2

     total cpu time spent up to now is       49.3 secs

     End of band structure calculation

     Number of k-points >= 100: set verbosity='high' to print the bands.

     the Fermi energy is     7.5829 ev

     Writing output data file aluminium.bcc.save

                                                                                

     bravais-lattice index     =            3
     lattice parameter (alat)  =       6.1240  a.u.
     unit-cell volume          =     114.8353 (a.u.)^3
     number of atoms/cell      =            1
     number of atomic types    =            1
     kinetic-energy cut-off    =      40.0000  Ry
     charge density cut-off    =     160.0000  Ry
     convergence threshold     =      1.0E-12
     beta                      =       0.7000
     number of iterations used =            4
     Exchange-correlation      =  SLA  PW   PBX  PBC ( 1  4  3  4 0 0)


     celldm(1)=    6.12400  celldm(2)=    0.00000  celldm(3)=    0.00000
     celldm(4)=    0.00000  celldm(5)=    0.00000  celldm(6)=    0.00000

     crystal axes: (cart. coord. in units of alat)
               a(1) = (  0.5000  0.5000  0.5000 )  
               a(2) = ( -0.5000  0.5000  0.5000 )  
               a(3) = ( -0.5000 -0.5000  0.5000 )  

     reciprocal axes: (cart. coord. in units 2 pi/alat)
               b(1) = (  1.0000  0.0000  1.0000 )  
               b(2) = ( -1.0000  1.0000  0.0000 )  
               b(3) = (  0.0000 -1.0000  1.0000 )  


     Atoms inside the unit cell: 

     Cartesian axes

     site n.  atom      mass           positions (alat units)
        1     Al  26.9820   tau(    1) = (    0.00000    0.00000    0.00000  )

     Computing dynamical matrix for 
                    q = (   0.0000000  -0.0833333   0.0833333 )

      4 Sym.Ops. (no q -> -q+G )


     G cutoff =  151.9955  (    981 G-vectors)     FFT grid: ( 24, 24, 24)

     number of k points=  4400  gaussian smearing, width (Ry)=  0.0500

     PseudoPot. # 1 for Al read from file:
     /home/max/quantum_espresso/qe-6.1/pseudo/Al.pbe-n-kjpaw_psl.1.0.0.UPF
     MD5 check sum: dd5adf945272da8132fc805c9e56c2d6
     Pseudo is Projector augmented-wave + core cor, Zval =  3.0
     Generated using "atomic" code by A. Dal Corso  v.5.1
     Shape of augmentation charge: PSQ
     Using radial grid of 1135 points,  6 beta functions with: 
                l(1) =   0
                l(2) =   0
                l(3) =   1
                l(4) =   1
                l(5) =   2
                l(6) =   2
     Q(r) pseudized with 0 coefficients 


     Mode symmetry, C_2v (mm2)  point group:


     Atomic displacements:
     There are   3 irreducible representations

     Representation     1      1 modes -A_1  D_1  S_1  To be done

     Representation     2      1 modes -B_1  D_3  S_3  To be done

     Representation     3      1 modes -B_2  D_4  S_4  To be done



     Alpha used in Ewald sum =   1.8000
     PHONON       :  1m 9.23s CPU     1m11.55s WALL



     Representation #  1 mode #   1

     Self-consistent Calculation

      iter #   1 total cpu time :    77.4 secs   av.it.:   4.6
      thresh= 1.000E-02 alpha_mix =  0.700 |ddv_scf|^2 =  3.768E+00

      iter #   2 total cpu time :    83.0 secs   av.it.:   6.8
      thresh= 1.000E-02 alpha_mix =  0.700 |ddv_scf|^2 =  1.354E+04

      iter #   3 total cpu time :    88.6 secs   av.it.:   6.8
      thresh= 1.000E-02 alpha_mix =  0.700 |ddv_scf|^2 =  4.874E-01

      iter #   4 total cpu time :    92.3 secs   av.it.:   3.2
      thresh= 1.000E-02 alpha_mix =  0.700 |ddv_scf|^2 =  3.204E-06

      iter #   5 total cpu time :    96.8 secs   av.it.:   4.9
      thresh= 1.790E-04 alpha_mix =  0.700 |ddv_scf|^2 =  1.559E-06

      iter #   6 total cpu time :    99.8 secs   av.it.:   2.0
      thresh= 1.249E-04 alpha_mix =  0.700 |ddv_scf|^2 =  5.715E-08

      iter #   7 total cpu time :   103.8 secs   av.it.:   4.2
      thresh= 2.391E-05 alpha_mix =  0.700 |ddv_scf|^2 =  3.369E-09

      iter #   8 total cpu time :   107.8 secs   av.it.:   3.9
      thresh= 5.804E-06 alpha_mix =  0.700 |ddv_scf|^2 =  2.127E-11

      iter #   9 total cpu time :   111.9 secs   av.it.:   4.4
      thresh= 4.612E-07 alpha_mix =  0.700 |ddv_scf|^2 =  7.504E-14

     End of self-consistent calculation

     Convergence has been achieved 


     Representation #  2 mode #   2

     Self-consistent Calculation

      iter #   1 total cpu time :   117.8 secs   av.it.:   3.5
      thresh= 1.000E-02 alpha_mix =  0.700 |ddv_scf|^2 =  4.075E-07

      iter #   2 total cpu time :   122.9 secs   av.it.:   6.1
      thresh= 6.384E-05 alpha_mix =  0.700 |ddv_scf|^2 =  2.531E-08

      iter #   3 total cpu time :   128.0 secs   av.it.:   6.1
      thresh= 1.591E-05 alpha_mix =  0.700 |ddv_scf|^2 =  3.961E-10

      iter #   4 total cpu time :   133.0 secs   av.it.:   6.1
      thresh= 1.990E-06 alpha_mix =  0.700 |ddv_scf|^2 =  8.672E-13

     End of self-consistent calculation

     Convergence has been achieved 


     Representation #  3 mode #   3

     Self-consistent Calculation

      iter #   1 total cpu time :   138.6 secs   av.it.:   3.4
      thresh= 1.000E-02 alpha_mix =  0.700 |ddv_scf|^2 =  3.991E-07

      iter #   2 total cpu time :   143.6 secs   av.it.:   6.0
      thresh= 6.318E-05 alpha_mix =  0.700 |ddv_scf|^2 =  2.509E-08

      iter #   3 total cpu time :   148.7 secs   av.it.:   6.0
      thresh= 1.584E-05 alpha_mix =  0.700 |ddv_scf|^2 =  3.949E-10

      iter #   4 total cpu time :   153.6 secs   av.it.:   5.9
      thresh= 1.987E-06 alpha_mix =  0.700 |ddv_scf|^2 =  1.388E-12

      iter #   5 total cpu time :   158.8 secs   av.it.:   6.4
      thresh= 1.178E-07 alpha_mix =  0.700 |ddv_scf|^2 =  2.870E-14

     End of self-consistent calculation

     Convergence has been achieved 

     Number of q in the star =   12
     List of q in the star:
          1   0.000000000  -0.083333333   0.083333333
          2  -0.083333333   0.000000000   0.083333333
          3   0.000000000   0.083333333   0.083333333
          4   0.083333333   0.000000000   0.083333333
          5   0.083333333  -0.083333333   0.000000000
          6   0.083333333   0.083333333   0.000000000
          7   0.000000000  -0.083333333  -0.083333333
          8  -0.083333333   0.083333333   0.000000000
          9   0.083333333   0.000000000  -0.083333333
         10  -0.083333333   0.000000000  -0.083333333
         11   0.000000000   0.083333333  -0.083333333
         12  -0.083333333  -0.083333333   0.000000000

     Diagonalizing the dynamical matrix

     q = (    0.000000000  -0.083333333   0.083333333 ) 

 **************************************************************************
     freq (    1) =      -0.947724 [THz] =     -31.612656 [cm-1]
     freq (    2) =       1.395451 [THz] =      46.547240 [cm-1]
     freq (    3) =       2.238928 [THz] =      74.682605 [cm-1]
 **************************************************************************

     Mode symmetry, C_2v (mm2)  point group:

     freq (  1 -  1) =        -31.6  [cm-1]   --> B_1  D_3  S_3      
     freq (  2 -  2) =         46.5  [cm-1]   --> B_2  D_4  S_4      
     freq (  3 -  3) =         74.7  [cm-1]   --> A_1  D_1  S_1      

     Calculation of q =    0.0000000  -0.1666667   0.1666667

   Info: using nr1, nr2, nr3 values from input

   Info: using nr1, nr2, nr3 values from input

     Parallelization info
     --------------------
     sticks:   dense  smooth     PW     G-vecs:    dense   smooth      PW
     Min          84      84     32                  981      981     221
     Max          85      85     33                  982      982     222
     Sum         337     337    129                 3925     3925     887



     bravais-lattice index     =            3
     lattice parameter (alat)  =       6.1240  a.u.
     unit-cell volume          =     114.8353 (a.u.)^3
     number of atoms/cell      =            1
     number of atomic types    =            1
     number of electrons       =         3.00
     number of Kohn-Sham states=            6
     kinetic-energy cutoff     =      40.0000  Ry
     charge density cutoff     =     160.0000  Ry
     Exchange-correlation      =  SLA  PW   PBX  PBC ( 1  4  3  4 0 0)

     celldm(1)=   6.124000  celldm(2)=   0.000000  celldm(3)=   0.000000
     celldm(4)=   0.000000  celldm(5)=   0.000000  celldm(6)=   0.000000

     crystal axes: (cart. coord. in units of alat)
               a(1) = (   0.500000   0.500000   0.500000 )  
               a(2) = (  -0.500000   0.500000   0.500000 )  
               a(3) = (  -0.500000  -0.500000   0.500000 )  

     reciprocal axes: (cart. coord. in units 2 pi/alat)
               b(1) = (  1.000000  0.000000  1.000000 )  
               b(2) = ( -1.000000  1.000000  0.000000 )  
               b(3) = (  0.000000 -1.000000  1.000000 )  


     PseudoPot. # 1 for Al read from file:
     /home/max/quantum_espresso/qe-6.1/pseudo/Al.pbe-n-kjpaw_psl.1.0.0.UPF
     MD5 check sum: dd5adf945272da8132fc805c9e56c2d6
     Pseudo is Projector augmented-wave + core cor, Zval =  3.0
     Generated using "atomic" code by A. Dal Corso  v.5.1
     Shape of augmentation charge: PSQ
     Using radial grid of 1135 points,  6 beta functions with: 
                l(1) =   0
                l(2) =   0
                l(3) =   1
                l(4) =   1
                l(5) =   2
                l(6) =   2
     Q(r) pseudized with 0 coefficients 


     atomic species   valence    mass     pseudopotential
        Al             3.00    26.98200     Al( 1.00)

     48 Sym. Ops., with inversion, found



   Cartesian axes

     site n.     atom                  positions (alat units)
         1           Al  tau(   1) = (   0.0000000   0.0000000   0.0000000  )

     number of k points=  4400  gaussian smearing, width (Ry)=  0.0500

     Number of k-points >= 100: set verbosity='high' to print them.

     Dense  grid:     3925 G-vectors     FFT dimensions: (  24,  24,  24)

     Estimated max dynamical RAM per process >       0.50MB

     Estimated total allocated dynamical RAM >       2.01MB

     The potential is recalculated from file :
     ./_ph0/aluminium.bcc.save/charge-density.dat

     Starting wfc are    4 atomic +    2 random wfc
     Checking if some PAW data can be deallocated... 

     Band Structure Calculation
     Davidson diagonalization with overlap

     ethr =  3.33E-10,  avg # of iterations = 16.1

     total cpu time spent up to now is      101.2 secs

     End of band structure calculation

     Number of k-points >= 100: set verbosity='high' to print the bands.

     the Fermi energy is     7.5829 ev

     Writing output data file aluminium.bcc.save

                                                                                

     bravais-lattice index     =            3
     lattice parameter (alat)  =       6.1240  a.u.
     unit-cell volume          =     114.8353 (a.u.)^3
     number of atoms/cell      =            1
     number of atomic types    =            1
     kinetic-energy cut-off    =      40.0000  Ry
     charge density cut-off    =     160.0000  Ry
     convergence threshold     =      1.0E-12
     beta                      =       0.7000
     number of iterations used =            4
     Exchange-correlation      =  SLA  PW   PBX  PBC ( 1  4  3  4 0 0)


     celldm(1)=    6.12400  celldm(2)=    0.00000  celldm(3)=    0.00000
     celldm(4)=    0.00000  celldm(5)=    0.00000  celldm(6)=    0.00000

     crystal axes: (cart. coord. in units of alat)
               a(1) = (  0.5000  0.5000  0.5000 )  
               a(2) = ( -0.5000  0.5000  0.5000 )  
               a(3) = ( -0.5000 -0.5000  0.5000 )  

     reciprocal axes: (cart. coord. in units 2 pi/alat)
               b(1) = (  1.0000  0.0000  1.0000 )  
               b(2) = ( -1.0000  1.0000  0.0000 )  
               b(3) = (  0.0000 -1.0000  1.0000 )  


     Atoms inside the unit cell: 

     Cartesian axes

     site n.  atom      mass           positions (alat units)
        1     Al  26.9820   tau(    1) = (    0.00000    0.00000    0.00000  )

     Computing dynamical matrix for 
                    q = (   0.0000000  -0.1666667   0.1666667 )

      4 Sym.Ops. (no q -> -q+G )


     G cutoff =  151.9955  (    981 G-vectors)     FFT grid: ( 24, 24, 24)

     number of k points=  4400  gaussian smearing, width (Ry)=  0.0500

     PseudoPot. # 1 for Al read from file:
     /home/max/quantum_espresso/qe-6.1/pseudo/Al.pbe-n-kjpaw_psl.1.0.0.UPF
     MD5 check sum: dd5adf945272da8132fc805c9e56c2d6
     Pseudo is Projector augmented-wave + core cor, Zval =  3.0
     Generated using "atomic" code by A. Dal Corso  v.5.1
     Shape of augmentation charge: PSQ
     Using radial grid of 1135 points,  6 beta functions with: 
                l(1) =   0
                l(2) =   0
                l(3) =   1
                l(4) =   1
                l(5) =   2
                l(6) =   2
     Q(r) pseudized with 0 coefficients 


     Mode symmetry, C_2v (mm2)  point group:


     Atomic displacements:
     There are   3 irreducible representations

     Representation     1      1 modes -A_1  D_1  S_1  To be done

     Representation     2      1 modes -B_1  D_3  S_3  To be done

     Representation     3      1 modes -B_2  D_4  S_4  To be done



     Alpha used in Ewald sum =   1.8000
     PHONON       :  3m27.06s CPU     3m35.49s WALL



     Representation #  1 mode #   1

     Self-consistent Calculation

      iter #   1 total cpu time :   221.3 secs   av.it.:   4.5
      thresh= 1.000E-02 alpha_mix =  0.700 |ddv_scf|^2 =  5.317E-02

      iter #   2 total cpu time :   226.4 secs   av.it.:   5.9
      thresh= 1.000E-02 alpha_mix =  0.700 |ddv_scf|^2 =  1.119E+01

      iter #   3 total cpu time :   231.4 secs   av.it.:   5.8
      thresh= 1.000E-02 alpha_mix =  0.700 |ddv_scf|^2 =  2.462E-05

      iter #   4 total cpu time :   235.7 secs   av.it.:   4.5
      thresh= 4.962E-04 alpha_mix =  0.700 |ddv_scf|^2 =  3.960E-09

      iter #   5 total cpu time :   241.0 secs   av.it.:   6.4
      thresh= 6.293E-06 alpha_mix =  0.700 |ddv_scf|^2 =  1.073E-09

      iter #   6 total cpu time :   245.5 secs   av.it.:   5.0
      thresh= 3.276E-06 alpha_mix =  0.700 |ddv_scf|^2 =  2.659E-08

      iter #   7 total cpu time :   249.4 secs   av.it.:   3.6
      thresh= 1.631E-05 alpha_mix =  0.700 |ddv_scf|^2 =  1.413E-12

      iter #   8 total cpu time :   254.6 secs   av.it.:   6.3
      thresh= 1.189E-07 alpha_mix =  0.700 |ddv_scf|^2 =  6.762E-14

     End of self-consistent calculation

     Convergence has been achieved 


     Representation #  2 mode #   2

     Self-consistent Calculation

      iter #   1 total cpu time :   260.2 secs   av.it.:   3.5
      thresh= 1.000E-02 alpha_mix =  0.700 |ddv_scf|^2 =  4.022E-07

      iter #   2 total cpu time :   265.3 secs   av.it.:   6.2
      thresh= 6.342E-05 alpha_mix =  0.700 |ddv_scf|^2 =  2.551E-08

      iter #   3 total cpu time :   270.4 secs   av.it.:   6.2
      thresh= 1.597E-05 alpha_mix =  0.700 |ddv_scf|^2 =  4.059E-10

      iter #   4 total cpu time :   275.5 secs   av.it.:   6.1
      thresh= 2.015E-06 alpha_mix =  0.700 |ddv_scf|^2 =  1.363E-12

      iter #   5 total cpu time :   280.8 secs   av.it.:   6.5
      thresh= 1.167E-07 alpha_mix =  0.700 |ddv_scf|^2 =  1.895E-14

     End of self-consistent calculation

     Convergence has been achieved 


     Representation #  3 mode #   3

     Self-consistent Calculation

      iter #   1 total cpu time :   286.3 secs   av.it.:   3.5
      thresh= 1.000E-02 alpha_mix =  0.700 |ddv_scf|^2 =  3.718E-07

      iter #   2 total cpu time :   291.4 secs   av.it.:   6.1
      thresh= 6.098E-05 alpha_mix =  0.700 |ddv_scf|^2 =  2.451E-08

      iter #   3 total cpu time :   296.8 secs   av.it.:   6.1
      thresh= 1.566E-05 alpha_mix =  0.700 |ddv_scf|^2 =  3.961E-10

      iter #   4 total cpu time :   301.7 secs   av.it.:   5.9
      thresh= 1.990E-06 alpha_mix =  0.700 |ddv_scf|^2 =  3.269E-12

      iter #   5 total cpu time :   306.8 secs   av.it.:   6.2
      thresh= 1.808E-07 alpha_mix =  0.700 |ddv_scf|^2 =  2.665E-14

     End of self-consistent calculation

     Convergence has been achieved 

     Number of q in the star =   12
     List of q in the star:
          1   0.000000000  -0.166666667   0.166666667
          2  -0.166666667   0.000000000   0.166666667
          3   0.000000000   0.166666667   0.166666667
          4   0.166666667   0.000000000   0.166666667
          5   0.166666667  -0.166666667   0.000000000
          6   0.166666667   0.166666667   0.000000000
          7   0.000000000  -0.166666667  -0.166666667
          8  -0.166666667   0.166666667   0.000000000
          9   0.166666667   0.000000000  -0.166666667
         10  -0.166666667   0.000000000  -0.166666667
         11   0.000000000   0.166666667  -0.166666667
         12  -0.166666667  -0.166666667   0.000000000

     Diagonalizing the dynamical matrix

     q = (    0.000000000  -0.166666667   0.166666667 ) 

 **************************************************************************
     freq (    1) =      -1.892734 [THz] =     -63.134807 [cm-1]
     freq (    2) =       2.720429 [THz] =      90.743737 [cm-1]
     freq (    3) =       4.392690 [THz] =     146.524368 [cm-1]
 **************************************************************************

     Mode symmetry, C_2v (mm2)  point group:

     freq (  1 -  1) =        -63.1  [cm-1]   --> B_1  D_3  S_3      
     freq (  2 -  2) =         90.7  [cm-1]   --> B_2  D_4  S_4      
     freq (  3 -  3) =        146.5  [cm-1]   --> A_1  D_1  S_1      

     Calculation of q =    0.0000000  -0.2500000   0.2500000

   Info: using nr1, nr2, nr3 values from input

   Info: using nr1, nr2, nr3 values from input

     Parallelization info
     --------------------
     sticks:   dense  smooth     PW     G-vecs:    dense   smooth      PW
     Min          84      84     32                  981      981     233
     Max          85      85     33                  982      982     235
     Sum         337     337    129                 3925     3925     935



     bravais-lattice index     =            3
     lattice parameter (alat)  =       6.1240  a.u.
     unit-cell volume          =     114.8353 (a.u.)^3
     number of atoms/cell      =            1
     number of atomic types    =            1
     number of electrons       =         3.00
     number of Kohn-Sham states=            6
     kinetic-energy cutoff     =      40.0000  Ry
     charge density cutoff     =     160.0000  Ry
     Exchange-correlation      =  SLA  PW   PBX  PBC ( 1  4  3  4 0 0)

     celldm(1)=   6.124000  celldm(2)=   0.000000  celldm(3)=   0.000000
     celldm(4)=   0.000000  celldm(5)=   0.000000  celldm(6)=   0.000000

     crystal axes: (cart. coord. in units of alat)
               a(1) = (   0.500000   0.500000   0.500000 )  
               a(2) = (  -0.500000   0.500000   0.500000 )  
               a(3) = (  -0.500000  -0.500000   0.500000 )  

     reciprocal axes: (cart. coord. in units 2 pi/alat)
               b(1) = (  1.000000  0.000000  1.000000 )  
               b(2) = ( -1.000000  1.000000  0.000000 )  
               b(3) = (  0.000000 -1.000000  1.000000 )  


     PseudoPot. # 1 for Al read from file:
     /home/max/quantum_espresso/qe-6.1/pseudo/Al.pbe-n-kjpaw_psl.1.0.0.UPF
     MD5 check sum: dd5adf945272da8132fc805c9e56c2d6
     Pseudo is Projector augmented-wave + core cor, Zval =  3.0
     Generated using "atomic" code by A. Dal Corso  v.5.1
     Shape of augmentation charge: PSQ
     Using radial grid of 1135 points,  6 beta functions with: 
                l(1) =   0
                l(2) =   0
                l(3) =   1
                l(4) =   1
                l(5) =   2
                l(6) =   2
     Q(r) pseudized with 0 coefficients 


     atomic species   valence    mass     pseudopotential
        Al             3.00    26.98200     Al( 1.00)

     48 Sym. Ops., with inversion, found



   Cartesian axes

     site n.     atom                  positions (alat units)
         1           Al  tau(   1) = (   0.0000000   0.0000000   0.0000000  )

     number of k points=  4400  gaussian smearing, width (Ry)=  0.0500

     Number of k-points >= 100: set verbosity='high' to print them.

     Dense  grid:     3925 G-vectors     FFT dimensions: (  24,  24,  24)

     Estimated max dynamical RAM per process >       0.50MB

     Estimated total allocated dynamical RAM >       2.01MB

     The potential is recalculated from file :
     ./_ph0/aluminium.bcc.save/charge-density.dat

     Starting wfc are    4 atomic +    2 random wfc
     Checking if some PAW data can be deallocated... 

     Band Structure Calculation
     Davidson diagonalization with overlap

     ethr =  3.33E-10,  avg # of iterations = 16.2

     total cpu time spent up to now is      153.0 secs

     End of band structure calculation

     Number of k-points >= 100: set verbosity='high' to print the bands.

     the Fermi energy is     7.5829 ev

     Writing output data file aluminium.bcc.save

                                                                                

     bravais-lattice index     =            3
     lattice parameter (alat)  =       6.1240  a.u.
     unit-cell volume          =     114.8353 (a.u.)^3
     number of atoms/cell      =            1
     number of atomic types    =            1
     kinetic-energy cut-off    =      40.0000  Ry
     charge density cut-off    =     160.0000  Ry
     convergence threshold     =      1.0E-12
     beta                      =       0.7000
     number of iterations used =            4
     Exchange-correlation      =  SLA  PW   PBX  PBC ( 1  4  3  4 0 0)


     celldm(1)=    6.12400  celldm(2)=    0.00000  celldm(3)=    0.00000
     celldm(4)=    0.00000  celldm(5)=    0.00000  celldm(6)=    0.00000

     crystal axes: (cart. coord. in units of alat)
               a(1) = (  0.5000  0.5000  0.5000 )  
               a(2) = ( -0.5000  0.5000  0.5000 )  
               a(3) = ( -0.5000 -0.5000  0.5000 )  

     reciprocal axes: (cart. coord. in units 2 pi/alat)
               b(1) = (  1.0000  0.0000  1.0000 )  
               b(2) = ( -1.0000  1.0000  0.0000 )  
               b(3) = (  0.0000 -1.0000  1.0000 )  


     Atoms inside the unit cell: 

     Cartesian axes

     site n.  atom      mass           positions (alat units)
        1     Al  26.9820   tau(    1) = (    0.00000    0.00000    0.00000  )

     Computing dynamical matrix for 
                    q = (   0.0000000  -0.2500000   0.2500000 )

      4 Sym.Ops. (no q -> -q+G )


     G cutoff =  151.9955  (    981 G-vectors)     FFT grid: ( 24, 24, 24)

     number of k points=  4400  gaussian smearing, width (Ry)=  0.0500

     PseudoPot. # 1 for Al read from file:
     /home/max/quantum_espresso/qe-6.1/pseudo/Al.pbe-n-kjpaw_psl.1.0.0.UPF
     MD5 check sum: dd5adf945272da8132fc805c9e56c2d6
     Pseudo is Projector augmented-wave + core cor, Zval =  3.0
     Generated using "atomic" code by A. Dal Corso  v.5.1
     Shape of augmentation charge: PSQ
     Using radial grid of 1135 points,  6 beta functions with: 
                l(1) =   0
                l(2) =   0
                l(3) =   1
                l(4) =   1
                l(5) =   2
                l(6) =   2
     Q(r) pseudized with 0 coefficients 


     Mode symmetry, C_2v (mm2)  point group:


     Atomic displacements:
     There are   3 irreducible representations

     Representation     1      1 modes -A_1  D_1  S_1  To be done

     Representation     2      1 modes -B_1  D_3  S_3  To be done

     Representation     3      1 modes -B_2  D_4  S_4  To be done



     Alpha used in Ewald sum =   1.8000
     PHONON       :  5m48.66s CPU     6m 3.42s WALL



     Representation #  1 mode #   1

     Self-consistent Calculation

      iter #   1 total cpu time :   369.2 secs   av.it.:   4.5
      thresh= 1.000E-02 alpha_mix =  0.700 |ddv_scf|^2 =  3.921E-03

      iter #   2 total cpu time :   374.1 secs   av.it.:   5.6
      thresh= 6.262E-03 alpha_mix =  0.700 |ddv_scf|^2 =  1.456E-01

      iter #   3 total cpu time :   378.8 secs   av.it.:   5.1
      thresh= 1.000E-02 alpha_mix =  0.700 |ddv_scf|^2 =  1.149E-07

      iter #   4 total cpu time :   384.0 secs   av.it.:   6.2
      thresh= 3.390E-05 alpha_mix =  0.700 |ddv_scf|^2 =  2.244E-09

      iter #   5 total cpu time :   389.2 secs   av.it.:   6.3
      thresh= 4.737E-06 alpha_mix =  0.700 |ddv_scf|^2 =  4.527E-11

      iter #   6 total cpu time :   394.3 secs   av.it.:   6.2
      thresh= 6.728E-07 alpha_mix =  0.700 |ddv_scf|^2 =  9.602E-11

      iter #   7 total cpu time :   398.8 secs   av.it.:   4.7
      thresh= 9.799E-07 alpha_mix =  0.700 |ddv_scf|^2 =  8.931E-11

      iter #   8 total cpu time :   403.3 secs   av.it.:   5.0
      thresh= 9.450E-07 alpha_mix =  0.700 |ddv_scf|^2 =  6.043E-13

     End of self-consistent calculation

     Convergence has been achieved 


     Representation #  2 mode #   2

     Self-consistent Calculation

      iter #   1 total cpu time :   409.0 secs   av.it.:   3.6
      thresh= 1.000E-02 alpha_mix =  0.700 |ddv_scf|^2 =  3.962E-07

      iter #   2 total cpu time :   414.2 secs   av.it.:   6.2
      thresh= 6.294E-05 alpha_mix =  0.700 |ddv_scf|^2 =  2.598E-08

      iter #   3 total cpu time :   419.6 secs   av.it.:   6.2
      thresh= 1.612E-05 alpha_mix =  0.700 |ddv_scf|^2 =  4.173E-10

      iter #   4 total cpu time :   424.7 secs   av.it.:   6.1
      thresh= 2.043E-06 alpha_mix =  0.700 |ddv_scf|^2 =  2.028E-12

      iter #   5 total cpu time :   430.0 secs   av.it.:   6.4
      thresh= 1.424E-07 alpha_mix =  0.700 |ddv_scf|^2 =  1.459E-14

     End of self-consistent calculation

     Convergence has been achieved 


     Representation #  3 mode #   3

     Self-consistent Calculation

      iter #   1 total cpu time :   435.5 secs   av.it.:   3.5
      thresh= 1.000E-02 alpha_mix =  0.700 |ddv_scf|^2 =  3.367E-07

      iter #   2 total cpu time :   440.8 secs   av.it.:   6.2
      thresh= 5.802E-05 alpha_mix =  0.700 |ddv_scf|^2 =  2.381E-08

      iter #   3 total cpu time :   445.8 secs   av.it.:   6.0
      thresh= 1.543E-05 alpha_mix =  0.700 |ddv_scf|^2 =  3.894E-10

      iter #   4 total cpu time :   450.7 secs   av.it.:   5.8
      thresh= 1.973E-06 alpha_mix =  0.700 |ddv_scf|^2 =  5.304E-12

      iter #   5 total cpu time :   455.7 secs   av.it.:   6.0
      thresh= 2.303E-07 alpha_mix =  0.700 |ddv_scf|^2 =  2.883E-14

     End of self-consistent calculation

     Convergence has been achieved 

     Number of q in the star =   12
     List of q in the star:
          1   0.000000000  -0.250000000   0.250000000
          2  -0.250000000   0.000000000   0.250000000
          3   0.000000000   0.250000000   0.250000000
          4   0.250000000   0.000000000   0.250000000
          5   0.250000000  -0.250000000   0.000000000
          6   0.250000000   0.250000000   0.000000000
          7   0.000000000  -0.250000000  -0.250000000
          8  -0.250000000   0.250000000   0.000000000
          9   0.250000000   0.000000000  -0.250000000
         10  -0.250000000   0.000000000  -0.250000000
         11   0.000000000   0.250000000  -0.250000000
         12  -0.250000000  -0.250000000   0.000000000

     Diagonalizing the dynamical matrix

     q = (    0.000000000  -0.250000000   0.250000000 ) 

 **************************************************************************
     freq (    1) =      -2.719776 [THz] =     -90.721968 [cm-1]
     freq (    2) =       3.905306 [THz] =     130.266979 [cm-1]
     freq (    3) =       6.347036 [THz] =     211.714316 [cm-1]
 **************************************************************************

     Mode symmetry, C_2v (mm2)  point group:

     freq (  1 -  1) =        -90.7  [cm-1]   --> B_1  D_3  S_3      
     freq (  2 -  2) =        130.3  [cm-1]   --> B_2  D_4  S_4      
     freq (  3 -  3) =        211.7  [cm-1]   --> A_1  D_1  S_1      

     Calculation of q =    0.0000000  -0.3333333   0.3333333

   Info: using nr1, nr2, nr3 values from input

   Info: using nr1, nr2, nr3 values from input

     Parallelization info
     --------------------
     sticks:   dense  smooth     PW     G-vecs:    dense   smooth      PW
     Min          84      84     32                  981      981     233
     Max          85      85     33                  982      982     235
     Sum         337     337    129                 3925     3925     935



     bravais-lattice index     =            3
     lattice parameter (alat)  =       6.1240  a.u.
     unit-cell volume          =     114.8353 (a.u.)^3
     number of atoms/cell      =            1
     number of atomic types    =            1
     number of electrons       =         3.00
     number of Kohn-Sham states=            6
     kinetic-energy cutoff     =      40.0000  Ry
     charge density cutoff     =     160.0000  Ry
     Exchange-correlation      =  SLA  PW   PBX  PBC ( 1  4  3  4 0 0)

     celldm(1)=   6.124000  celldm(2)=   0.000000  celldm(3)=   0.000000
     celldm(4)=   0.000000  celldm(5)=   0.000000  celldm(6)=   0.000000

     crystal axes: (cart. coord. in units of alat)
               a(1) = (   0.500000   0.500000   0.500000 )  
               a(2) = (  -0.500000   0.500000   0.500000 )  
               a(3) = (  -0.500000  -0.500000   0.500000 )  

     reciprocal axes: (cart. coord. in units 2 pi/alat)
               b(1) = (  1.000000  0.000000  1.000000 )  
               b(2) = ( -1.000000  1.000000  0.000000 )  
               b(3) = (  0.000000 -1.000000  1.000000 )  


     PseudoPot. # 1 for Al read from file:
     /home/max/quantum_espresso/qe-6.1/pseudo/Al.pbe-n-kjpaw_psl.1.0.0.UPF
     MD5 check sum: dd5adf945272da8132fc805c9e56c2d6
     Pseudo is Projector augmented-wave + core cor, Zval =  3.0
     Generated using "atomic" code by A. Dal Corso  v.5.1
     Shape of augmentation charge: PSQ
     Using radial grid of 1135 points,  6 beta functions with: 
                l(1) =   0
                l(2) =   0
                l(3) =   1
                l(4) =   1
                l(5) =   2
                l(6) =   2
     Q(r) pseudized with 0 coefficients 


     atomic species   valence    mass     pseudopotential
        Al             3.00    26.98200     Al( 1.00)

     48 Sym. Ops., with inversion, found



   Cartesian axes

     site n.     atom                  positions (alat units)
         1           Al  tau(   1) = (   0.0000000   0.0000000   0.0000000  )

     number of k points=  4400  gaussian smearing, width (Ry)=  0.0500

     Number of k-points >= 100: set verbosity='high' to print them.

     Dense  grid:     3925 G-vectors     FFT dimensions: (  24,  24,  24)

     Estimated max dynamical RAM per process >       0.50MB

     Estimated total allocated dynamical RAM >       2.01MB

     The potential is recalculated from file :
     ./_ph0/aluminium.bcc.save/charge-density.dat

     Starting wfc are    4 atomic +    2 random wfc
     Checking if some PAW data can be deallocated... 

     Band Structure Calculation
     Davidson diagonalization with overlap

     ethr =  3.33E-10,  avg # of iterations = 16.2

     total cpu time spent up to now is      204.6 secs

     End of band structure calculation

     Number of k-points >= 100: set verbosity='high' to print the bands.

     the Fermi energy is     7.5829 ev

     Writing output data file aluminium.bcc.save

                                                                                

     bravais-lattice index     =            3
     lattice parameter (alat)  =       6.1240  a.u.
     unit-cell volume          =     114.8353 (a.u.)^3
     number of atoms/cell      =            1
     number of atomic types    =            1
     kinetic-energy cut-off    =      40.0000  Ry
     charge density cut-off    =     160.0000  Ry
     convergence threshold     =      1.0E-12
     beta                      =       0.7000
     number of iterations used =            4
     Exchange-correlation      =  SLA  PW   PBX  PBC ( 1  4  3  4 0 0)


     celldm(1)=    6.12400  celldm(2)=    0.00000  celldm(3)=    0.00000
     celldm(4)=    0.00000  celldm(5)=    0.00000  celldm(6)=    0.00000

     crystal axes: (cart. coord. in units of alat)
               a(1) = (  0.5000  0.5000  0.5000 )  
               a(2) = ( -0.5000  0.5000  0.5000 )  
               a(3) = ( -0.5000 -0.5000  0.5000 )  

     reciprocal axes: (cart. coord. in units 2 pi/alat)
               b(1) = (  1.0000  0.0000  1.0000 )  
               b(2) = ( -1.0000  1.0000  0.0000 )  
               b(3) = (  0.0000 -1.0000  1.0000 )  


     Atoms inside the unit cell: 

     Cartesian axes

     site n.  atom      mass           positions (alat units)
        1     Al  26.9820   tau(    1) = (    0.00000    0.00000    0.00000  )

     Computing dynamical matrix for 
                    q = (   0.0000000  -0.3333333   0.3333333 )

      4 Sym.Ops. (no q -> -q+G )


     G cutoff =  151.9955  (    981 G-vectors)     FFT grid: ( 24, 24, 24)

     number of k points=  4400  gaussian smearing, width (Ry)=  0.0500

     PseudoPot. # 1 for Al read from file:
     /home/max/quantum_espresso/qe-6.1/pseudo/Al.pbe-n-kjpaw_psl.1.0.0.UPF
     MD5 check sum: dd5adf945272da8132fc805c9e56c2d6
     Pseudo is Projector augmented-wave + core cor, Zval =  3.0
     Generated using "atomic" code by A. Dal Corso  v.5.1
     Shape of augmentation charge: PSQ
     Using radial grid of 1135 points,  6 beta functions with: 
                l(1) =   0
                l(2) =   0
                l(3) =   1
                l(4) =   1
                l(5) =   2
                l(6) =   2
     Q(r) pseudized with 0 coefficients 


     Mode symmetry, C_2v (mm2)  point group:


     Atomic displacements:
     There are   3 irreducible representations

     Representation     1      1 modes -A_1  D_1  S_1  To be done

     Representation     2      1 modes -B_1  D_3  S_3  To be done

     Representation     3      1 modes -B_2  D_4  S_4  To be done



     Alpha used in Ewald sum =   1.8000
     PHONON       :  8m11.05s CPU     8m32.11s WALL



     Representation #  1 mode #   1

     Self-consistent Calculation

      iter #   1 total cpu time :   517.9 secs   av.it.:   4.6
      thresh= 1.000E-02 alpha_mix =  0.700 |ddv_scf|^2 =  5.380E-04

      iter #   2 total cpu time :   522.9 secs   av.it.:   5.8
      thresh= 2.319E-03 alpha_mix =  0.700 |ddv_scf|^2 =  5.294E-03

      iter #   3 total cpu time :   527.4 secs   av.it.:   4.7
      thresh= 7.276E-03 alpha_mix =  0.700 |ddv_scf|^2 =  6.572E-08

      iter #   4 total cpu time :   532.9 secs   av.it.:   6.7
      thresh= 2.564E-05 alpha_mix =  0.700 |ddv_scf|^2 =  4.074E-09

      iter #   5 total cpu time :   538.1 secs   av.it.:   6.3
      thresh= 6.383E-06 alpha_mix =  0.700 |ddv_scf|^2 =  2.722E-10

      iter #   6 total cpu time :   543.3 secs   av.it.:   6.3
      thresh= 1.650E-06 alpha_mix =  0.700 |ddv_scf|^2 =  7.181E-12

      iter #   7 total cpu time :   548.6 secs   av.it.:   6.1
      thresh= 2.680E-07 alpha_mix =  0.700 |ddv_scf|^2 =  2.915E-11

      iter #   8 total cpu time :   553.1 secs   av.it.:   4.8
      thresh= 5.399E-07 alpha_mix =  0.700 |ddv_scf|^2 =  1.420E-14

     End of self-consistent calculation

     Convergence has been achieved 


     Representation #  2 mode #   2

     Self-consistent Calculation

      iter #   1 total cpu time :   558.8 secs   av.it.:   3.6
      thresh= 1.000E-02 alpha_mix =  0.700 |ddv_scf|^2 =  3.905E-07

      iter #   2 total cpu time :   563.9 secs   av.it.:   6.3
      thresh= 6.249E-05 alpha_mix =  0.700 |ddv_scf|^2 =  2.651E-08

      iter #   3 total cpu time :   569.1 secs   av.it.:   6.2
      thresh= 1.628E-05 alpha_mix =  0.700 |ddv_scf|^2 =  4.212E-10

      iter #   4 total cpu time :   574.1 secs   av.it.:   6.0
      thresh= 2.052E-06 alpha_mix =  0.700 |ddv_scf|^2 =  2.609E-12

      iter #   5 total cpu time :   579.3 secs   av.it.:   6.4
      thresh= 1.615E-07 alpha_mix =  0.700 |ddv_scf|^2 =  1.129E-14

     End of self-consistent calculation

     Convergence has been achieved 


     Representation #  3 mode #   3

     Self-consistent Calculation

      iter #   1 total cpu time :   585.0 secs   av.it.:   3.6
      thresh= 1.000E-02 alpha_mix =  0.700 |ddv_scf|^2 =  3.041E-07

      iter #   2 total cpu time :   590.1 secs   av.it.:   6.2
      thresh= 5.514E-05 alpha_mix =  0.700 |ddv_scf|^2 =  2.326E-08

      iter #   3 total cpu time :   595.2 secs   av.it.:   5.9
      thresh= 1.525E-05 alpha_mix =  0.700 |ddv_scf|^2 =  3.683E-10

      iter #   4 total cpu time :   600.0 secs   av.it.:   5.7
      thresh= 1.919E-06 alpha_mix =  0.700 |ddv_scf|^2 =  5.551E-12

      iter #   5 total cpu time :   605.2 secs   av.it.:   5.7
      thresh= 2.356E-07 alpha_mix =  0.700 |ddv_scf|^2 =  2.394E-14

     End of self-consistent calculation

     Convergence has been achieved 

     Number of q in the star =   12
     List of q in the star:
          1   0.000000000  -0.333333333   0.333333333
          2  -0.333333333   0.000000000   0.333333333
          3   0.000000000   0.333333333   0.333333333
          4   0.333333333   0.000000000   0.333333333
          5   0.333333333  -0.333333333   0.000000000
          6   0.333333333   0.333333333   0.000000000
          7   0.000000000  -0.333333333  -0.333333333
          8  -0.333333333   0.333333333   0.000000000
          9   0.333333333   0.000000000  -0.333333333
         10  -0.333333333   0.000000000  -0.333333333
         11   0.000000000   0.333333333  -0.333333333
         12  -0.333333333  -0.333333333   0.000000000

     Diagonalizing the dynamical matrix

     q = (    0.000000000  -0.333333333   0.333333333 ) 

 **************************************************************************
     freq (    1) =      -3.135532 [THz] =    -104.590091 [cm-1]
     freq (    2) =       4.849397 [THz] =     161.758472 [cm-1]
     freq (    3) =       7.865447 [THz] =     262.363076 [cm-1]
 **************************************************************************

     Mode symmetry, C_2v (mm2)  point group:

     freq (  1 -  1) =       -104.6  [cm-1]   --> B_1  D_3  S_3      
     freq (  2 -  2) =        161.8  [cm-1]   --> B_2  D_4  S_4      
     freq (  3 -  3) =        262.4  [cm-1]   --> A_1  D_1  S_1      

     Calculation of q =    0.0000000  -0.4166667   0.4166667

   Info: using nr1, nr2, nr3 values from input

   Info: using nr1, nr2, nr3 values from input

     Parallelization info
     --------------------
     sticks:   dense  smooth     PW     G-vecs:    dense   smooth      PW
     Min          83      83     32                  981      981     239
     Max          86      86     33                  982      982     242
     Sum         337     337    129                 3925     3925     959



     bravais-lattice index     =            3
     lattice parameter (alat)  =       6.1240  a.u.
     unit-cell volume          =     114.8353 (a.u.)^3
     number of atoms/cell      =            1
     number of atomic types    =            1
     number of electrons       =         3.00
     number of Kohn-Sham states=            6
     kinetic-energy cutoff     =      40.0000  Ry
     charge density cutoff     =     160.0000  Ry
     Exchange-correlation      =  SLA  PW   PBX  PBC ( 1  4  3  4 0 0)

     celldm(1)=   6.124000  celldm(2)=   0.000000  celldm(3)=   0.000000
     celldm(4)=   0.000000  celldm(5)=   0.000000  celldm(6)=   0.000000

     crystal axes: (cart. coord. in units of alat)
               a(1) = (   0.500000   0.500000   0.500000 )  
               a(2) = (  -0.500000   0.500000   0.500000 )  
               a(3) = (  -0.500000  -0.500000   0.500000 )  

     reciprocal axes: (cart. coord. in units 2 pi/alat)
               b(1) = (  1.000000  0.000000  1.000000 )  
               b(2) = ( -1.000000  1.000000  0.000000 )  
               b(3) = (  0.000000 -1.000000  1.000000 )  


     PseudoPot. # 1 for Al read from file:
     /home/max/quantum_espresso/qe-6.1/pseudo/Al.pbe-n-kjpaw_psl.1.0.0.UPF
     MD5 check sum: dd5adf945272da8132fc805c9e56c2d6
     Pseudo is Projector augmented-wave + core cor, Zval =  3.0
     Generated using "atomic" code by A. Dal Corso  v.5.1
     Shape of augmentation charge: PSQ
     Using radial grid of 1135 points,  6 beta functions with: 
                l(1) =   0
                l(2) =   0
                l(3) =   1
                l(4) =   1
                l(5) =   2
                l(6) =   2
     Q(r) pseudized with 0 coefficients 


     atomic species   valence    mass     pseudopotential
        Al             3.00    26.98200     Al( 1.00)

     48 Sym. Ops., with inversion, found



   Cartesian axes

     site n.     atom                  positions (alat units)
         1           Al  tau(   1) = (   0.0000000   0.0000000   0.0000000  )

     number of k points=  4400  gaussian smearing, width (Ry)=  0.0500

     Number of k-points >= 100: set verbosity='high' to print them.

     Dense  grid:     3925 G-vectors     FFT dimensions: (  24,  24,  24)

     Estimated max dynamical RAM per process >       0.50MB

     Estimated total allocated dynamical RAM >       2.01MB

     The potential is recalculated from file :
     ./_ph0/aluminium.bcc.save/charge-density.dat

     Starting wfc are    4 atomic +    2 random wfc
     Checking if some PAW data can be deallocated... 

     Band Structure Calculation
     Davidson diagonalization with overlap

     ethr =  3.33E-10,  avg # of iterations = 16.2

     total cpu time spent up to now is      256.5 secs

     End of band structure calculation

     Number of k-points >= 100: set verbosity='high' to print the bands.

     the Fermi energy is     7.5829 ev

     Writing output data file aluminium.bcc.save

                                                                                

     bravais-lattice index     =            3
     lattice parameter (alat)  =       6.1240  a.u.
     unit-cell volume          =     114.8353 (a.u.)^3
     number of atoms/cell      =            1
     number of atomic types    =            1
     kinetic-energy cut-off    =      40.0000  Ry
     charge density cut-off    =     160.0000  Ry
     convergence threshold     =      1.0E-12
     beta                      =       0.7000
     number of iterations used =            4
     Exchange-correlation      =  SLA  PW   PBX  PBC ( 1  4  3  4 0 0)


     celldm(1)=    6.12400  celldm(2)=    0.00000  celldm(3)=    0.00000
     celldm(4)=    0.00000  celldm(5)=    0.00000  celldm(6)=    0.00000

     crystal axes: (cart. coord. in units of alat)
               a(1) = (  0.5000  0.5000  0.5000 )  
               a(2) = ( -0.5000  0.5000  0.5000 )  
               a(3) = ( -0.5000 -0.5000  0.5000 )  

     reciprocal axes: (cart. coord. in units 2 pi/alat)
               b(1) = (  1.0000  0.0000  1.0000 )  
               b(2) = ( -1.0000  1.0000  0.0000 )  
               b(3) = (  0.0000 -1.0000  1.0000 )  


     Atoms inside the unit cell: 

     Cartesian axes

     site n.  atom      mass           positions (alat units)
        1     Al  26.9820   tau(    1) = (    0.00000    0.00000    0.00000  )

     Computing dynamical matrix for 
                    q = (   0.0000000  -0.4166667   0.4166667 )

      4 Sym.Ops. (no q -> -q+G )


     G cutoff =  151.9955  (    981 G-vectors)     FFT grid: ( 24, 24, 24)

     number of k points=  4400  gaussian smearing, width (Ry)=  0.0500

     PseudoPot. # 1 for Al read from file:
     /home/max/quantum_espresso/qe-6.1/pseudo/Al.pbe-n-kjpaw_psl.1.0.0.UPF
     MD5 check sum: dd5adf945272da8132fc805c9e56c2d6
     Pseudo is Projector augmented-wave + core cor, Zval =  3.0
     Generated using "atomic" code by A. Dal Corso  v.5.1
     Shape of augmentation charge: PSQ
     Using radial grid of 1135 points,  6 beta functions with: 
                l(1) =   0
                l(2) =   0
                l(3) =   1
                l(4) =   1
                l(5) =   2
                l(6) =   2
     Q(r) pseudized with 0 coefficients 


     Mode symmetry, C_2v (mm2)  point group:


     Atomic displacements:
     There are   3 irreducible representations

     Representation     1      1 modes -A_1  D_1  S_1  To be done

     Representation     2      1 modes -B_1  D_3  S_3  To be done

     Representation     3      1 modes -B_2  D_4  S_4  To be done



     Alpha used in Ewald sum =   1.8000
     PHONON       : 10m35.27s CPU    11m 2.49s WALL



     Representation #  1 mode #   1

     Self-consistent Calculation

      iter #   1 total cpu time :   668.2 secs   av.it.:   4.5
      thresh= 1.000E-02 alpha_mix =  0.700 |ddv_scf|^2 =  1.016E-04

      iter #   2 total cpu time :   673.4 secs   av.it.:   6.2
      thresh= 1.008E-03 alpha_mix =  0.700 |ddv_scf|^2 =  3.042E-04

      iter #   3 total cpu time :   678.1 secs   av.it.:   5.3
      thresh= 1.744E-03 alpha_mix =  0.700 |ddv_scf|^2 =  3.659E-07

      iter #   4 total cpu time :   683.3 secs   av.it.:   6.2
      thresh= 6.049E-05 alpha_mix =  0.700 |ddv_scf|^2 =  6.055E-09

      iter #   5 total cpu time :   688.5 secs   av.it.:   6.3
      thresh= 7.782E-06 alpha_mix =  0.700 |ddv_scf|^2 =  1.291E-10

      iter #   6 total cpu time :   693.6 secs   av.it.:   6.2
      thresh= 1.136E-06 alpha_mix =  0.700 |ddv_scf|^2 =  3.612E-12

      iter #   7 total cpu time :   698.5 secs   av.it.:   5.7
      thresh= 1.901E-07 alpha_mix =  0.700 |ddv_scf|^2 =  2.430E-14

     End of self-consistent calculation

     Convergence has been achieved 


     Representation #  2 mode #   2

     Self-consistent Calculation

      iter #   1 total cpu time :   704.2 secs   av.it.:   3.6
      thresh= 1.000E-02 alpha_mix =  0.700 |ddv_scf|^2 =  3.862E-07

      iter #   2 total cpu time :   709.3 secs   av.it.:   6.2
      thresh= 6.214E-05 alpha_mix =  0.700 |ddv_scf|^2 =  2.694E-08

      iter #   3 total cpu time :   714.5 secs   av.it.:   6.2
      thresh= 1.641E-05 alpha_mix =  0.700 |ddv_scf|^2 =  4.175E-10

      iter #   4 total cpu time :   719.4 secs   av.it.:   5.9
      thresh= 2.043E-06 alpha_mix =  0.700 |ddv_scf|^2 =  2.919E-12

      iter #   5 total cpu time :   725.0 secs   av.it.:   6.4
      thresh= 1.708E-07 alpha_mix =  0.700 |ddv_scf|^2 =  9.644E-15

     End of self-consistent calculation

     Convergence has been achieved 


     Representation #  3 mode #   3

     Self-consistent Calculation

      iter #   1 total cpu time :   730.7 secs   av.it.:   3.6
      thresh= 1.000E-02 alpha_mix =  0.700 |ddv_scf|^2 =  2.810E-07

      iter #   2 total cpu time :   735.8 secs   av.it.:   6.1
      thresh= 5.301E-05 alpha_mix =  0.700 |ddv_scf|^2 =  2.282E-08

      iter #   3 total cpu time :   740.8 secs   av.it.:   5.9
      thresh= 1.511E-05 alpha_mix =  0.700 |ddv_scf|^2 =  3.452E-10

      iter #   4 total cpu time :   745.7 secs   av.it.:   5.7
      thresh= 1.858E-06 alpha_mix =  0.700 |ddv_scf|^2 =  4.480E-12

      iter #   5 total cpu time :   750.5 secs   av.it.:   5.6
      thresh= 2.117E-07 alpha_mix =  0.700 |ddv_scf|^2 =  1.148E-14

     End of self-consistent calculation

     Convergence has been achieved 

     Number of q in the star =   12
     List of q in the star:
          1   0.000000000  -0.416666667   0.416666667
          2  -0.416666667   0.000000000   0.416666667
          3   0.000000000   0.416666667   0.416666667
          4   0.416666667   0.000000000   0.416666667
          5   0.416666667  -0.416666667   0.000000000
          6   0.416666667   0.416666667   0.000000000
          7   0.000000000  -0.416666667  -0.416666667
          8  -0.416666667   0.416666667   0.000000000
          9   0.416666667   0.000000000  -0.416666667
         10  -0.416666667   0.000000000  -0.416666667
         11   0.000000000   0.416666667  -0.416666667
         12  -0.416666667  -0.416666667   0.000000000

     Diagonalizing the dynamical matrix

     q = (    0.000000000  -0.416666667   0.416666667 ) 

 **************************************************************************
     freq (    1) =      -3.242855 [THz] =    -108.169989 [cm-1]
     freq (    2) =       5.556959 [THz] =     185.360201 [cm-1]
     freq (    3) =       8.782217 [THz] =     292.943219 [cm-1]
 **************************************************************************

     Mode symmetry, C_2v (mm2)  point group:

     freq (  1 -  1) =       -108.2  [cm-1]   --> B_1  D_3  S_3      
     freq (  2 -  2) =        185.4  [cm-1]   --> B_2  D_4  S_4      
     freq (  3 -  3) =        292.9  [cm-1]   --> A_1  D_1  S_1      

     Calculation of q =    0.0000000   0.5000000  -0.5000000

   Info: using nr1, nr2, nr3 values from input

   Info: using nr1, nr2, nr3 values from input

     Parallelization info
     --------------------
     sticks:   dense  smooth     PW     G-vecs:    dense   smooth      PW
     Min          83      83     32                  981      981     239
     Max          86      86     33                  982      982     242
     Sum         337     337    129                 3925     3925     959



     bravais-lattice index     =            3
     lattice parameter (alat)  =       6.1240  a.u.
     unit-cell volume          =     114.8353 (a.u.)^3
     number of atoms/cell      =            1
     number of atomic types    =            1
     number of electrons       =         3.00
     number of Kohn-Sham states=            6
     kinetic-energy cutoff     =      40.0000  Ry
     charge density cutoff     =     160.0000  Ry
     Exchange-correlation      =  SLA  PW   PBX  PBC ( 1  4  3  4 0 0)

     celldm(1)=   6.124000  celldm(2)=   0.000000  celldm(3)=   0.000000
     celldm(4)=   0.000000  celldm(5)=   0.000000  celldm(6)=   0.000000

     crystal axes: (cart. coord. in units of alat)
               a(1) = (   0.500000   0.500000   0.500000 )  
               a(2) = (  -0.500000   0.500000   0.500000 )  
               a(3) = (  -0.500000  -0.500000   0.500000 )  

     reciprocal axes: (cart. coord. in units 2 pi/alat)
               b(1) = (  1.000000  0.000000  1.000000 )  
               b(2) = ( -1.000000  1.000000  0.000000 )  
               b(3) = (  0.000000 -1.000000  1.000000 )  


     PseudoPot. # 1 for Al read from file:
     /home/max/quantum_espresso/qe-6.1/pseudo/Al.pbe-n-kjpaw_psl.1.0.0.UPF
     MD5 check sum: dd5adf945272da8132fc805c9e56c2d6
     Pseudo is Projector augmented-wave + core cor, Zval =  3.0
     Generated using "atomic" code by A. Dal Corso  v.5.1
     Shape of augmentation charge: PSQ
     Using radial grid of 1135 points,  6 beta functions with: 
                l(1) =   0
                l(2) =   0
                l(3) =   1
                l(4) =   1
                l(5) =   2
                l(6) =   2
     Q(r) pseudized with 0 coefficients 


     atomic species   valence    mass     pseudopotential
        Al             3.00    26.98200     Al( 1.00)

     48 Sym. Ops., with inversion, found



   Cartesian axes

     site n.     atom                  positions (alat units)
         1           Al  tau(   1) = (   0.0000000   0.0000000   0.0000000  )

     number of k points=  2310  gaussian smearing, width (Ry)=  0.0500

     Number of k-points >= 100: set verbosity='high' to print them.

     Dense  grid:     3925 G-vectors     FFT dimensions: (  24,  24,  24)

     Estimated max dynamical RAM per process >       0.50MB

     Estimated total allocated dynamical RAM >       2.01MB

     The potential is recalculated from file :
     ./_ph0/aluminium.bcc.save/charge-density.dat

     Starting wfc are    4 atomic +    2 random wfc
     Checking if some PAW data can be deallocated... 

     Band Structure Calculation
     Davidson diagonalization with overlap

     ethr =  3.33E-10,  avg # of iterations = 16.2

     total cpu time spent up to now is      285.2 secs

     End of band structure calculation

     Number of k-points >= 100: set verbosity='high' to print the bands.

     the Fermi energy is     7.5829 ev

     Writing output data file aluminium.bcc.save

                                                                                

     bravais-lattice index     =            3
     lattice parameter (alat)  =       6.1240  a.u.
     unit-cell volume          =     114.8353 (a.u.)^3
     number of atoms/cell      =            1
     number of atomic types    =            1
     kinetic-energy cut-off    =      40.0000  Ry
     charge density cut-off    =     160.0000  Ry
     convergence threshold     =      1.0E-12
     beta                      =       0.7000
     number of iterations used =            4
     Exchange-correlation      =  SLA  PW   PBX  PBC ( 1  4  3  4 0 0)


     celldm(1)=    6.12400  celldm(2)=    0.00000  celldm(3)=    0.00000
     celldm(4)=    0.00000  celldm(5)=    0.00000  celldm(6)=    0.00000

     crystal axes: (cart. coord. in units of alat)
               a(1) = (  0.5000  0.5000  0.5000 )  
               a(2) = ( -0.5000  0.5000  0.5000 )  
               a(3) = ( -0.5000 -0.5000  0.5000 )  

     reciprocal axes: (cart. coord. in units 2 pi/alat)
               b(1) = (  1.0000  0.0000  1.0000 )  
               b(2) = ( -1.0000  1.0000  0.0000 )  
               b(3) = (  0.0000 -1.0000  1.0000 )  


     Atoms inside the unit cell: 

     Cartesian axes

     site n.  atom      mass           positions (alat units)
        1     Al  26.9820   tau(    1) = (    0.00000    0.00000    0.00000  )

     Computing dynamical matrix for 
                    q = (   0.0000000   0.5000000  -0.5000000 )

      9 Sym.Ops. (with q -> -q+G )


     G cutoff =  151.9955  (    981 G-vectors)     FFT grid: ( 24, 24, 24)

     number of k points=  2310  gaussian smearing, width (Ry)=  0.0500

     PseudoPot. # 1 for Al read from file:
     /home/max/quantum_espresso/qe-6.1/pseudo/Al.pbe-n-kjpaw_psl.1.0.0.UPF
     MD5 check sum: dd5adf945272da8132fc805c9e56c2d6
     Pseudo is Projector augmented-wave + core cor, Zval =  3.0
     Generated using "atomic" code by A. Dal Corso  v.5.1
     Shape of augmentation charge: PSQ
     Using radial grid of 1135 points,  6 beta functions with: 
                l(1) =   0
                l(2) =   0
                l(3) =   1
                l(4) =   1
                l(5) =   2
                l(6) =   2
     Q(r) pseudized with 0 coefficients 


     Mode symmetry, D_2h (mmm)  point group:


     Atomic displacements:
     There are   3 irreducible representations

     Representation     1      1 modes -B_1u  To be done

     Representation     2      1 modes -B_2u  To be done

     Representation     3      1 modes -B_3u  To be done



     Alpha used in Ewald sum =   1.8000
     PHONON       : 12m28.77s CPU    13m 1.06s WALL



     Representation #  1 mode #   1

     Self-consistent Calculation

      iter #   1 total cpu time :   784.0 secs   av.it.:   3.6
      thresh= 1.000E-02 alpha_mix =  0.700 |ddv_scf|^2 =  2.727E-07

      iter #   2 total cpu time :   786.9 secs   av.it.:   6.1
      thresh= 5.222E-05 alpha_mix =  0.700 |ddv_scf|^2 =  2.262E-08

      iter #   3 total cpu time :   789.8 secs   av.it.:   5.9
      thresh= 1.504E-05 alpha_mix =  0.700 |ddv_scf|^2 =  3.355E-10

      iter #   4 total cpu time :   792.6 secs   av.it.:   5.8
      thresh= 1.832E-06 alpha_mix =  0.700 |ddv_scf|^2 =  4.034E-12

      iter #   5 total cpu time :   795.3 secs   av.it.:   5.6
      thresh= 2.009E-07 alpha_mix =  0.700 |ddv_scf|^2 =  5.567E-15

     End of self-consistent calculation

     Convergence has been achieved 


     Representation #  2 mode #   2

     Self-consistent Calculation

      iter #   1 total cpu time :   798.6 secs   av.it.:   3.6
      thresh= 1.000E-02 alpha_mix =  0.700 |ddv_scf|^2 =  3.846E-07

      iter #   2 total cpu time :   801.5 secs   av.it.:   6.2
      thresh= 6.201E-05 alpha_mix =  0.700 |ddv_scf|^2 =  2.709E-08

      iter #   3 total cpu time :   804.4 secs   av.it.:   6.2
      thresh= 1.646E-05 alpha_mix =  0.700 |ddv_scf|^2 =  4.142E-10

      iter #   4 total cpu time :   807.3 secs   av.it.:   5.9
      thresh= 2.035E-06 alpha_mix =  0.700 |ddv_scf|^2 =  2.982E-12

      iter #   5 total cpu time :   810.2 secs   av.it.:   6.4
      thresh= 1.727E-07 alpha_mix =  0.700 |ddv_scf|^2 =  8.979E-15

     End of self-consistent calculation

     Convergence has been achieved 


     Representation #  3 mode #   3

     Self-consistent Calculation

      iter #   1 total cpu time :   813.7 secs   av.it.:   4.4
      thresh= 1.000E-02 alpha_mix =  0.700 |ddv_scf|^2 =  3.943E-05

      iter #   2 total cpu time :   816.7 secs   av.it.:   6.3
      thresh= 6.280E-04 alpha_mix =  0.700 |ddv_scf|^2 =  3.868E-05

      iter #   3 total cpu time :   819.6 secs   av.it.:   5.9
      thresh= 6.219E-04 alpha_mix =  0.700 |ddv_scf|^2 =  1.309E-08

      iter #   4 total cpu time :   822.6 secs   av.it.:   6.3
      thresh= 1.144E-05 alpha_mix =  0.700 |ddv_scf|^2 =  2.267E-10

      iter #   5 total cpu time :   825.4 secs   av.it.:   5.9
      thresh= 1.506E-06 alpha_mix =  0.700 |ddv_scf|^2 =  4.924E-12

      iter #   6 total cpu time :   828.2 secs   av.it.:   5.6
      thresh= 2.219E-07 alpha_mix =  0.700 |ddv_scf|^2 =  1.897E-15

     End of self-consistent calculation

     Convergence has been achieved 

     Number of q in the star =    6
     List of q in the star:
          1   0.000000000   0.500000000  -0.500000000
          2  -0.500000000   0.500000000   0.000000000
          3  -0.500000000  -0.500000000   0.000000000
          4  -0.500000000   0.000000000  -0.500000000
          5   0.000000000  -0.500000000  -0.500000000
          6   0.500000000   0.000000000  -0.500000000

     Diagonalizing the dynamical matrix

     q = (    0.000000000   0.500000000  -0.500000000 ) 

 **************************************************************************
     freq (    1) =      -3.229861 [THz] =    -107.736557 [cm-1]
     freq (    2) =       5.883933 [THz] =     196.266868 [cm-1]
     freq (    3) =       9.135360 [THz] =     304.722795 [cm-1]
 **************************************************************************

     Mode symmetry, D_2h (mmm)  point group:

     freq (  1 -  1) =       -107.7  [cm-1]   --> B_2u               
     freq (  2 -  2) =        196.3  [cm-1]   --> B_1u               
     freq (  3 -  3) =        304.7  [cm-1]   --> B_3u               

     Calculation of q =   -0.0833333  -0.0833333   0.1666667

   Info: using nr1, nr2, nr3 values from input

   Info: using nr1, nr2, nr3 values from input

     Parallelization info
     --------------------
     sticks:   dense  smooth     PW     G-vecs:    dense   smooth      PW
     Min          84      84     29                  981      981     197
     Max          85      85     30                  982      982     199
     Sum         337     337    117                 3925     3925     791



     bravais-lattice index     =            3
     lattice parameter (alat)  =       6.1240  a.u.
     unit-cell volume          =     114.8353 (a.u.)^3
     number of atoms/cell      =            1
     number of atomic types    =            1
     number of electrons       =         3.00
     number of Kohn-Sham states=            6
     kinetic-energy cutoff     =      40.0000  Ry
     charge density cutoff     =     160.0000  Ry
     Exchange-correlation      =  SLA  PW   PBX  PBC ( 1  4  3  4 0 0)

     celldm(1)=   6.124000  celldm(2)=   0.000000  celldm(3)=   0.000000
     celldm(4)=   0.000000  celldm(5)=   0.000000  celldm(6)=   0.000000

     crystal axes: (cart. coord. in units of alat)
               a(1) = (   0.500000   0.500000   0.500000 )  
               a(2) = (  -0.500000   0.500000   0.500000 )  
               a(3) = (  -0.500000  -0.500000   0.500000 )  

     reciprocal axes: (cart. coord. in units 2 pi/alat)
               b(1) = (  1.000000  0.000000  1.000000 )  
               b(2) = ( -1.000000  1.000000  0.000000 )  
               b(3) = (  0.000000 -1.000000  1.000000 )  


     PseudoPot. # 1 for Al read from file:
     /home/max/quantum_espresso/qe-6.1/pseudo/Al.pbe-n-kjpaw_psl.1.0.0.UPF
     MD5 check sum: dd5adf945272da8132fc805c9e56c2d6
     Pseudo is Projector augmented-wave + core cor, Zval =  3.0
     Generated using "atomic" code by A. Dal Corso  v.5.1
     Shape of augmentation charge: PSQ
     Using radial grid of 1135 points,  6 beta functions with: 
                l(1) =   0
                l(2) =   0
                l(3) =   1
                l(4) =   1
                l(5) =   2
                l(6) =   2
     Q(r) pseudized with 0 coefficients 


     atomic species   valence    mass     pseudopotential
        Al             3.00    26.98200     Al( 1.00)

     48 Sym. Ops., with inversion, found



   Cartesian axes

     site n.     atom                  positions (alat units)
         1           Al  tau(   1) = (   0.0000000   0.0000000   0.0000000  )

     number of k points=  8400  gaussian smearing, width (Ry)=  0.0500

     Number of k-points >= 100: set verbosity='high' to print them.

     Dense  grid:     3925 G-vectors     FFT dimensions: (  24,  24,  24)

     Estimated max dynamical RAM per process >       0.50MB

     Estimated total allocated dynamical RAM >       2.01MB

     The potential is recalculated from file :
     ./_ph0/aluminium.bcc.save/charge-density.dat

     Starting wfc are    4 atomic +    2 random wfc
     Checking if some PAW data can be deallocated... 

     Band Structure Calculation
     Davidson diagonalization with overlap

     ethr =  3.33E-10,  avg # of iterations = 16.2

     total cpu time spent up to now is      378.7 secs

     End of band structure calculation

     Number of k-points >= 100: set verbosity='high' to print the bands.

     the Fermi energy is     7.5829 ev

     Writing output data file aluminium.bcc.save

                                                                                

     bravais-lattice index     =            3
     lattice parameter (alat)  =       6.1240  a.u.
     unit-cell volume          =     114.8353 (a.u.)^3
     number of atoms/cell      =            1
     number of atomic types    =            1
     kinetic-energy cut-off    =      40.0000  Ry
     charge density cut-off    =     160.0000  Ry
     convergence threshold     =      1.0E-12
     beta                      =       0.7000
     number of iterations used =            4
     Exchange-correlation      =  SLA  PW   PBX  PBC ( 1  4  3  4 0 0)


     celldm(1)=    6.12400  celldm(2)=    0.00000  celldm(3)=    0.00000
     celldm(4)=    0.00000  celldm(5)=    0.00000  celldm(6)=    0.00000

     crystal axes: (cart. coord. in units of alat)
               a(1) = (  0.5000  0.5000  0.5000 )  
               a(2) = ( -0.5000  0.5000  0.5000 )  
               a(3) = ( -0.5000 -0.5000  0.5000 )  

     reciprocal axes: (cart. coord. in units 2 pi/alat)
               b(1) = (  1.0000  0.0000  1.0000 )  
               b(2) = ( -1.0000  1.0000  0.0000 )  
               b(3) = (  0.0000 -1.0000  1.0000 )  


     Atoms inside the unit cell: 

     Cartesian axes

     site n.  atom      mass           positions (alat units)
        1     Al  26.9820   tau(    1) = (    0.00000    0.00000    0.00000  )

     Computing dynamical matrix for 
                    q = (  -0.0833333  -0.0833333   0.1666667 )

      2 Sym.Ops. (no q -> -q+G )


     G cutoff =  151.9955  (    981 G-vectors)     FFT grid: ( 24, 24, 24)

     number of k points=  8400  gaussian smearing, width (Ry)=  0.0500

     PseudoPot. # 1 for Al read from file:
     /home/max/quantum_espresso/qe-6.1/pseudo/Al.pbe-n-kjpaw_psl.1.0.0.UPF
     MD5 check sum: dd5adf945272da8132fc805c9e56c2d6
     Pseudo is Projector augmented-wave + core cor, Zval =  3.0
     Generated using "atomic" code by A. Dal Corso  v.5.1
     Shape of augmentation charge: PSQ
     Using radial grid of 1135 points,  6 beta functions with: 
                l(1) =   0
                l(2) =   0
                l(3) =   1
                l(4) =   1
                l(5) =   2
                l(6) =   2
     Q(r) pseudized with 0 coefficients 


     Mode symmetry, C_s (m)     point group:


     Atomic displacements:
     There are   3 irreducible representations

     Representation     1      1 modes -A'  To be done

     Representation     2      1 modes -A'  To be done

     Representation     3      1 modes -A''  To be done



     Alpha used in Ewald sum =   1.8000
     PHONON       : 14m56.93s CPU    15m34.09s WALL



     Representation #  1 mode #   1

     Self-consistent Calculation

      iter #   1 total cpu time :   944.3 secs   av.it.:   4.1
      thresh= 1.000E-02 alpha_mix =  0.700 |ddv_scf|^2 =  1.295E-02

      iter #   2 total cpu time :   952.9 secs   av.it.:   5.2
      thresh= 1.000E-02 alpha_mix =  0.700 |ddv_scf|^2 =  4.955E+00

      iter #   3 total cpu time :   961.5 secs   av.it.:   5.1
      thresh= 1.000E-02 alpha_mix =  0.700 |ddv_scf|^2 =  2.014E-05

      iter #   4 total cpu time :   969.9 secs   av.it.:   4.6
      thresh= 4.488E-04 alpha_mix =  0.700 |ddv_scf|^2 =  2.393E-09

      iter #   5 total cpu time :   979.8 secs   av.it.:   6.5
      thresh= 4.892E-06 alpha_mix =  0.700 |ddv_scf|^2 =  5.612E-08

      iter #   6 total cpu time :   986.2 secs   av.it.:   2.9
      thresh= 2.369E-05 alpha_mix =  0.700 |ddv_scf|^2 =  1.530E-09

      iter #   7 total cpu time :   994.1 secs   av.it.:   4.6
      thresh= 3.912E-06 alpha_mix =  0.700 |ddv_scf|^2 =  1.005E-12

      iter #   8 total cpu time :  1003.7 secs   av.it.:   6.3
      thresh= 1.003E-07 alpha_mix =  0.700 |ddv_scf|^2 =  8.694E-15

     End of self-consistent calculation

     Convergence has been achieved 


     Representation #  2 mode #   2

     Self-consistent Calculation

      iter #   1 total cpu time :  1015.3 secs   av.it.:   4.5
      thresh= 1.000E-02 alpha_mix =  0.700 |ddv_scf|^2 =  1.176E-01

      iter #   2 total cpu time :  1024.8 secs   av.it.:   6.0
      thresh= 1.000E-02 alpha_mix =  0.700 |ddv_scf|^2 =  4.502E+01

      iter #   3 total cpu time :  1034.6 secs   av.it.:   6.0
      thresh= 1.000E-02 alpha_mix =  0.700 |ddv_scf|^2 =  1.760E-04

      iter #   4 total cpu time :  1042.0 secs   av.it.:   3.9
      thresh= 1.327E-03 alpha_mix =  0.700 |ddv_scf|^2 =  3.911E-09

      iter #   5 total cpu time :  1051.7 secs   av.it.:   6.4
[...]
     kinetic-energy cut-off    =      40.0000  Ry
     charge density cut-off    =     160.0000  Ry
     convergence threshold     =      1.0E-12
     beta                      =       0.7000
     number of iterations used =            4
     Exchange-correlation      =  SLA  PW   PBX  PBC ( 1  4  3  4 0 0)


     celldm(1)=    6.12400  celldm(2)=    0.00000  celldm(3)=    0.00000
     celldm(4)=    0.00000  celldm(5)=    0.00000  celldm(6)=    0.00000

     crystal axes: (cart. coord. in units of alat)
               a(1) = (  0.5000  0.5000  0.5000 )  
               a(2) = ( -0.5000  0.5000  0.5000 )  
               a(3) = ( -0.5000 -0.5000  0.5000 )  

     reciprocal axes: (cart. coord. in units 2 pi/alat)
               b(1) = (  1.0000  0.0000  1.0000 )  
               b(2) = ( -1.0000  1.0000  0.0000 )  
               b(3) = (  0.0000 -1.0000  1.0000 )  


     Atoms inside the unit cell: 

     Cartesian axes

     site n.  atom      mass           positions (alat units)
        1     Al  26.9820   tau(    1) = (    0.00000    0.00000    0.00000  )

     Computing dynamical matrix for 
                    q = (   0.0000000   0.9166667  -0.0833333 )

      4 Sym.Ops. (no q -> -q+G )


     G cutoff =  151.9955  (    981 G-vectors)     FFT grid: ( 24, 24, 24)

     number of k points=  4400  gaussian smearing, width (Ry)=  0.0500

     PseudoPot. # 1 for Al read from file:
     /home/max/quantum_espresso/qe-6.1/pseudo/Al.pbe-n-kjpaw_psl.1.0.0.UPF
     MD5 check sum: dd5adf945272da8132fc805c9e56c2d6
     Pseudo is Projector augmented-wave + core cor, Zval =  3.0
     Generated using "atomic" code by A. Dal Corso  v.5.1
     Shape of augmentation charge: PSQ
     Using radial grid of 1135 points,  6 beta functions with: 
                l(1) =   0
                l(2) =   0
                l(3) =   1
                l(4) =   1
                l(5) =   2
                l(6) =   2
     Q(r) pseudized with 0 coefficients 


     Mode symmetry, C_2v (mm2)  point group:


     Atomic displacements:
     There are   3 irreducible representations

     Representation     1      1 modes -A_1  D_1  S_1  To be done

     Representation     2      1 modes -B_1  D_3  S_3  To be done

     Representation     3      1 modes -B_2  D_4  S_4  To be done



     Alpha used in Ewald sum =   1.8000
     PHONON       :     5h38m CPU        5h55m WALL



     Representation #  1 mode #   1

     Self-consistent Calculation

      iter #   1 total cpu time : 21332.9 secs   av.it.:   4.3
      thresh= 1.000E-02 alpha_mix =  0.700 |ddv_scf|^2 =  1.362E-06

      iter #   2 total cpu time : 21338.3 secs   av.it.:   6.5
      thresh= 1.167E-04 alpha_mix =  0.700 |ddv_scf|^2 =  1.826E-07

      iter #   3 total cpu time : 21343.5 secs   av.it.:   6.4
      thresh= 4.273E-05 alpha_mix =  0.700 |ddv_scf|^2 =  6.143E-09

      iter #   4 total cpu time : 21348.7 secs   av.it.:   6.3
      thresh= 7.838E-06 alpha_mix =  0.700 |ddv_scf|^2 =  1.139E-10

      iter #   5 total cpu time : 21353.9 secs   av.it.:   6.2
      thresh= 1.067E-06 alpha_mix =  0.700 |ddv_scf|^2 =  6.049E-12

      iter #   6 total cpu time : 21359.0 secs   av.it.:   6.1
      thresh= 2.460E-07 alpha_mix =  0.700 |ddv_scf|^2 =  6.186E-15

     End of self-consistent calculation

     Convergence has been achieved 


     Representation #  2 mode #   2

     Self-consistent Calculation

      iter #   1 total cpu time : 21364.9 secs   av.it.:   4.0
      thresh= 1.000E-02 alpha_mix =  0.700 |ddv_scf|^2 =  8.720E-07

      iter #   2 total cpu time : 21370.2 secs   av.it.:   6.4
      thresh= 9.338E-05 alpha_mix =  0.700 |ddv_scf|^2 =  6.642E-08

      iter #   3 total cpu time : 21375.3 secs   av.it.:   6.3
      thresh= 2.577E-05 alpha_mix =  0.700 |ddv_scf|^2 =  4.153E-09

      iter #   4 total cpu time : 21380.5 secs   av.it.:   6.1
      thresh= 6.445E-06 alpha_mix =  0.700 |ddv_scf|^2 =  7.194E-11

      iter #   5 total cpu time : 21385.5 secs   av.it.:   5.8
      thresh= 8.482E-07 alpha_mix =  0.700 |ddv_scf|^2 =  4.348E-14

     End of self-consistent calculation

     Convergence has been achieved 


     Representation #  3 mode #   3

     Self-consistent Calculation

      iter #   1 total cpu time : 21391.5 secs   av.it.:   4.3
      thresh= 1.000E-02 alpha_mix =  0.700 |ddv_scf|^2 =  1.663E-06

      iter #   2 total cpu time : 21396.8 secs   av.it.:   6.4
      thresh= 1.289E-04 alpha_mix =  0.700 |ddv_scf|^2 =  2.003E-07

      iter #   3 total cpu time : 21402.0 secs   av.it.:   6.3
      thresh= 4.476E-05 alpha_mix =  0.700 |ddv_scf|^2 =  5.945E-09

      iter #   4 total cpu time : 21407.1 secs   av.it.:   6.2
      thresh= 7.711E-06 alpha_mix =  0.700 |ddv_scf|^2 =  9.163E-11

      iter #   5 total cpu time : 21412.4 secs   av.it.:   5.7
      thresh= 9.572E-07 alpha_mix =  0.700 |ddv_scf|^2 =  2.983E-13

     End of self-consistent calculation

     Convergence has been achieved 

     Number of q in the star =   12
     List of q in the star:
          1   0.000000000   0.916666667  -0.083333333
          2  -0.916666667   0.000000000  -0.083333333
          3   0.000000000  -0.916666667  -0.083333333
          4  -0.083333333   0.000000000  -0.916666667
          5   0.083333333   0.000000000  -0.916666667
          6   0.000000000   0.916666667   0.083333333
          7   0.000000000   0.083333333  -0.916666667
          8   0.083333333   0.916666667   0.000000000
          9   0.083333333  -0.916666667   0.000000000
         10  -0.083333333  -0.916666667   0.000000000
         11   0.916666667   0.000000000  -0.083333333
         12   0.916666667  -0.083333333   0.000000000

     Diagonalizing the dynamical matrix

     q = (    0.000000000   0.916666667  -0.083333333 ) 

 **************************************************************************
     freq (    1) =       7.847684 [THz] =     261.770548 [cm-1]
     freq (    2) =       7.933013 [THz] =     264.616828 [cm-1]
     freq (    3) =       8.093145 [THz] =     269.958256 [cm-1]
 **************************************************************************

     Mode symmetry, C_2v (mm2)  point group:

     freq (  1 -  1) =        261.8  [cm-1]   --> A_1  D_1  S_1      
     freq (  2 -  2) =        264.6  [cm-1]   --> B_1  D_3  S_3      
     freq (  3 -  3) =        270.0  [cm-1]   --> B_2  D_4  S_4      

     Calculation of q =    0.0000000   0.0000000  -1.0000000

   Info: using nr1, nr2, nr3 values from input

   Info: using nr1, nr2, nr3 values from input

     Parallelization info
     --------------------
     sticks:   dense  smooth     PW     G-vecs:    dense   smooth      PW
     Min          83      83     32                  981      981     239
     Max          86      86     33                  982      982     242
     Sum         337     337    129                 3925     3925     959



     bravais-lattice index     =            3
     lattice parameter (alat)  =       6.1240  a.u.
     unit-cell volume          =     114.8353 (a.u.)^3
     number of atoms/cell      =            1
     number of atomic types    =            1
     number of electrons       =         3.00
     number of Kohn-Sham states=            6
     kinetic-energy cutoff     =      40.0000  Ry
     charge density cutoff     =     160.0000  Ry
     Exchange-correlation      =  SLA  PW   PBX  PBC ( 1  4  3  4 0 0)

     celldm(1)=   6.124000  celldm(2)=   0.000000  celldm(3)=   0.000000
     celldm(4)=   0.000000  celldm(5)=   0.000000  celldm(6)=   0.000000

     crystal axes: (cart. coord. in units of alat)
               a(1) = (   0.500000   0.500000   0.500000 )  
               a(2) = (  -0.500000   0.500000   0.500000 )  
               a(3) = (  -0.500000  -0.500000   0.500000 )  

     reciprocal axes: (cart. coord. in units 2 pi/alat)
               b(1) = (  1.000000  0.000000  1.000000 )  
               b(2) = ( -1.000000  1.000000  0.000000 )  
               b(3) = (  0.000000 -1.000000  1.000000 )  


     PseudoPot. # 1 for Al read from file:
     /home/max/quantum_espresso/qe-6.1/pseudo/Al.pbe-n-kjpaw_psl.1.0.0.UPF
     MD5 check sum: dd5adf945272da8132fc805c9e56c2d6
     Pseudo is Projector augmented-wave + core cor, Zval =  3.0
     Generated using "atomic" code by A. Dal Corso  v.5.1
     Shape of augmentation charge: PSQ
     Using radial grid of 1135 points,  6 beta functions with: 
                l(1) =   0
                l(2) =   0
                l(3) =   1
                l(4) =   1
                l(5) =   2
                l(6) =   2
     Q(r) pseudized with 0 coefficients 


     atomic species   valence    mass     pseudopotential
        Al             3.00    26.98200     Al( 1.00)

     48 Sym. Ops., with inversion, found



   Cartesian axes

     site n.     atom                  positions (alat units)
         1           Al  tau(   1) = (   0.0000000   0.0000000   0.0000000  )

     number of k points=   500  gaussian smearing, width (Ry)=  0.0500

     Number of k-points >= 100: set verbosity='high' to print them.

     Dense  grid:     3925 G-vectors     FFT dimensions: (  24,  24,  24)

     Estimated max dynamical RAM per process >       0.50MB

     Estimated total allocated dynamical RAM >       2.01MB

     The potential is recalculated from file :
     ./_ph0/aluminium.bcc.save/charge-density.dat

     Starting wfc are    4 atomic +    2 random wfc
     Checking if some PAW data can be deallocated... 

     Band Structure Calculation
     Davidson diagonalization with overlap

     ethr =  3.33E-10,  avg # of iterations = 16.4

     total cpu time spent up to now is     7052.1 secs

     End of band structure calculation

     Number of k-points >= 100: set verbosity='high' to print the bands.

     the Fermi energy is     7.5829 ev

     Writing output data file aluminium.bcc.save

                                                                                

     bravais-lattice index     =            3
     lattice parameter (alat)  =       6.1240  a.u.
     unit-cell volume          =     114.8353 (a.u.)^3
     number of atoms/cell      =            1
     number of atomic types    =            1
     kinetic-energy cut-off    =      40.0000  Ry
     charge density cut-off    =     160.0000  Ry
     convergence threshold     =      1.0E-12
     beta                      =       0.7000
     number of iterations used =            4
     Exchange-correlation      =  SLA  PW   PBX  PBC ( 1  4  3  4 0 0)


     celldm(1)=    6.12400  celldm(2)=    0.00000  celldm(3)=    0.00000
     celldm(4)=    0.00000  celldm(5)=    0.00000  celldm(6)=    0.00000

     crystal axes: (cart. coord. in units of alat)
               a(1) = (  0.5000  0.5000  0.5000 )  
               a(2) = ( -0.5000  0.5000  0.5000 )  
               a(3) = ( -0.5000 -0.5000  0.5000 )  

     reciprocal axes: (cart. coord. in units 2 pi/alat)
               b(1) = (  1.0000  0.0000  1.0000 )  
               b(2) = ( -1.0000  1.0000  0.0000 )  
               b(3) = (  0.0000 -1.0000  1.0000 )  


     Atoms inside the unit cell: 

     Cartesian axes

     site n.  atom      mass           positions (alat units)
        1     Al  26.9820   tau(    1) = (    0.00000    0.00000    0.00000  )

     Computing dynamical matrix for 
                    q = (   0.0000000   0.0000000  -1.0000000 )

     49 Sym.Ops. (with q -> -q+G )


     G cutoff =  151.9955  (    981 G-vectors)     FFT grid: ( 24, 24, 24)

     number of k points=   500  gaussian smearing, width (Ry)=  0.0500

     PseudoPot. # 1 for Al read from file:
     /home/max/quantum_espresso/qe-6.1/pseudo/Al.pbe-n-kjpaw_psl.1.0.0.UPF
     MD5 check sum: dd5adf945272da8132fc805c9e56c2d6
     Pseudo is Projector augmented-wave + core cor, Zval =  3.0
     Generated using "atomic" code by A. Dal Corso  v.5.1
     Shape of augmentation charge: PSQ
     Using radial grid of 1135 points,  6 beta functions with: 
                l(1) =   0
                l(2) =   0
                l(3) =   1
                l(4) =   1
                l(5) =   2
                l(6) =   2
     Q(r) pseudized with 0 coefficients 


     Mode symmetry, O_h (m-3m)  point group:


     Atomic displacements:
     There are   1 irreducible representations

     Representation     1      3 modes -T_1u G_15  G_4-  To be done



     Alpha used in Ewald sum =   1.8000
     PHONON       :     5h40m CPU        5h56m WALL



     Representation #  1 modes #   1  2  3

     Self-consistent Calculation

      iter #   1 total cpu time : 21422.8 secs   av.it.:   4.3
      thresh= 1.000E-02 alpha_mix =  0.700 |ddv_scf|^2 =  1.066E-07

      iter #   2 total cpu time : 21425.9 secs   av.it.:   7.3
      thresh= 3.265E-05 alpha_mix =  0.700 |ddv_scf|^2 =  8.444E-09

      iter #   3 total cpu time : 21429.0 secs   av.it.:   7.2
      thresh= 9.189E-06 alpha_mix =  0.700 |ddv_scf|^2 =  4.888E-10

      iter #   4 total cpu time : 21432.0 secs   av.it.:   6.9
      thresh= 2.211E-06 alpha_mix =  0.700 |ddv_scf|^2 =  8.281E-12

      iter #   5 total cpu time : 21435.0 secs   av.it.:   6.5
      thresh= 2.878E-07 alpha_mix =  0.700 |ddv_scf|^2 =  2.595E-15

     End of self-consistent calculation

     Convergence has been achieved 

     Number of q in the star =    1
     List of q in the star:
          1   0.000000000   0.000000000  -1.000000000

     Diagonalizing the dynamical matrix

     q = (    0.000000000   0.000000000  -1.000000000 ) 

 **************************************************************************
     freq (    1) =       8.016103 [THz] =     267.388400 [cm-1]
     freq (    2) =       8.016103 [THz] =     267.388400 [cm-1]
     freq (    3) =       8.016103 [THz] =     267.388400 [cm-1]
 **************************************************************************

     Mode symmetry, O_h (m-3m)  point group:

     freq (  1 -  3) =        267.4  [cm-1]   --> T_1u G_15  G_4-    

     init_run     :     21.29s CPU     21.46s WALL (      71 calls)
     electrons    :   6379.34s CPU   6589.38s WALL (      71 calls)

     Called by init_run:
     wfcinit      :      0.00s CPU      0.01s WALL (      71 calls)
     potinit      :      6.36s CPU      6.38s WALL (      71 calls)

     Called by electrons:
     c_bands      :   6374.26s CPU   6584.25s WALL (      71 calls)
     v_of_rho     :      0.16s CPU      0.17s WALL (      72 calls)
     newd         :      0.33s CPU      0.34s WALL (      72 calls)
     PAW_pot      :      6.18s CPU      6.19s WALL (      72 calls)

     Called by c_bands:
     init_us_2    :    401.22s CPU    425.59s WALL ( 8550435 calls)
     cegterg      :   5878.43s CPU   6066.76s WALL (  654737 calls)

     Called by sum_band:

     Called by *egterg:
     h_psi        :  10870.82s CPU  11387.66s WALL (50311265 calls)
     s_psi        :    931.46s CPU    983.24s WALL (95656412 calls)
     g_psi        :     43.44s CPU     44.25s WALL ( 9654726 calls)
     cdiaghg      :    866.52s CPU    893.22s WALL (10252086 calls)

     Called by h_psi:
     h_psi:pot    :  10790.59s CPU  11302.74s WALL (50311265 calls)
     h_psi:calbec :    655.20s CPU    689.02s WALL (50311265 calls)
     vloc_psi     :   9525.77s CPU   9977.06s WALL (50311265 calls)
     add_vuspsi   :    501.92s CPU    524.27s WALL (50311265 calls)

     General routines
     calbec       :   1538.34s CPU   1622.16s WALL (******** calls)
     fft          :      1.72s CPU      2.18s WALL (   23435 calls)
     ffts         :     44.76s CPU     47.60s WALL (  898097 calls)
     fftw         :  10939.90s CPU  11477.49s WALL (******** calls)
     davcio       :    174.87s CPU    232.11s WALL (31973251 calls)

     Parallel routines
     fft_scatter  :   2119.38s CPU   2234.79s WALL (******** calls)

     PHONON       :     5h40m CPU        5h57m WALL

     INITIALIZATION: 
     phq_setup    :      0.72s CPU      0.72s WALL (      72 calls)
     phq_init     :    559.88s CPU    577.83s WALL (      72 calls)

     phq_init     :    559.88s CPU    577.83s WALL (      72 calls)
     set_drhoc    :     13.71s CPU     13.78s WALL (     216 calls)
     init_vloc    :      0.10s CPU      0.10s WALL (      72 calls)
     init_us_1    :      7.20s CPU      7.23s WALL (      72 calls)
     newd         :      0.33s CPU      0.34s WALL (      72 calls)
     dvanqq       :      1.44s CPU      1.45s WALL (      72 calls)
     drho         :    384.80s CPU    396.37s WALL (      72 calls)

     DYNAMICAL MATRIX:
     dynmat0      :    110.99s CPU    113.77s WALL (      72 calls)
     phqscf       :  13036.45s CPU  13798.70s WALL (      72 calls)
     dynmatrix    :      0.08s CPU      0.12s WALL (      72 calls)

     phqscf       :  13036.45s CPU  13798.70s WALL (      72 calls)
     solve_linter :  12845.94s CPU  13602.05s WALL (     201 calls)
     drhodv       :    190.23s CPU    196.32s WALL (     201 calls)

     dynmat0      :    110.99s CPU    113.77s WALL (      72 calls)
     dynmat_us    :    101.45s CPU    104.21s WALL (      72 calls)
     d2ionq       :      0.02s CPU      0.02s WALL (      72 calls)
     dynmatcc     :      9.40s CPU      9.44s WALL (      72 calls)

     dynmat_us    :    101.45s CPU    104.21s WALL (      72 calls)
     addusdynmat  :      0.00s CPU      0.00s WALL (      72 calls)

     phqscf       :  13036.45s CPU  13798.70s WALL (      72 calls)
     solve_linter :  12845.94s CPU  13602.05s WALL (     201 calls)

     solve_linter :  12845.94s CPU  13602.05s WALL (     201 calls)
     dvqpsi_us    :    751.33s CPU    789.17s WALL (  896790 calls)
     ortho        :    393.51s CPU    416.65s WALL ( 5940705 calls)
     cgsolve      :   8416.24s CPU   8896.19s WALL ( 5940705 calls)
     incdrhoscf   :   1161.57s CPU   1230.32s WALL ( 5940705 calls)
     addusddens   :      7.90s CPU      8.54s WALL (    1474 calls)
     vpsifft      :    838.26s CPU    890.52s WALL ( 5043915 calls)
     dv_of_drho   :      1.30s CPU      1.30s WALL (    1343 calls)
     mix_pot      :      0.52s CPU      0.64s WALL (    1273 calls)
     ef_shift     :      0.00s CPU      0.01s WALL (       5 calls)
     localdos     :      0.05s CPU      0.06s WALL (       1 calls)
     psymdvscf    :      2.44s CPU      2.49s WALL (     926 calls)
     newdq        :      6.88s CPU      6.94s WALL (    1273 calls)
     adddvscf     :    173.88s CPU    184.88s WALL ( 5043915 calls)
     drhodvus     :      0.04s CPU      0.03s WALL (     201 calls)

     dvqpsi_us    :    751.33s CPU    789.17s WALL (  896790 calls)
     dvqpsi_us_on :    248.83s CPU    259.43s WALL (  896790 calls)

     cgsolve      :   8416.24s CPU   8896.19s WALL ( 5940705 calls)
     ch_psi       :   8088.46s CPU   8546.99s WALL (39404442 calls)

     ch_psi       :   8088.46s CPU   8546.99s WALL (39404442 calls)
     h_psi        :  10870.82s CPU  11387.66s WALL (50311265 calls)
     last         :    984.15s CPU   1041.28s WALL (39404442 calls)

     h_psi        :  10870.82s CPU  11387.66s WALL (50311265 calls)
     add_vuspsi   :    501.92s CPU    524.27s WALL (50311265 calls)

     incdrhoscf   :   1161.57s CPU   1230.32s WALL ( 5940705 calls)
     addusdbec    :    208.89s CPU    220.77s WALL ( 6837495 calls)

     drhodvus     :      0.04s CPU      0.03s WALL (     201 calls)

      General routines
     calbec       :   1538.34s CPU   1622.16s WALL (******** calls)
     fft          :      1.72s CPU      2.18s WALL (   23435 calls)
     ffts         :     44.76s CPU     47.60s WALL (  898097 calls)
     fftw         :  10939.90s CPU  11477.49s WALL (******** calls)
     davcio       :    174.87s CPU    232.11s WALL (31973251 calls)
     write_rec    :      1.23s CPU      1.34s WALL (    1474 calls)


     PHONON       :     5h40m CPU        5h57m WALL


   This run was terminated on:  20: 1:21  31Oct2017            

=------------------------------------------------------------------------------=
   JOB DONE.
=------------------------------------------------------------------------------=
