
     Program Q2R v.6.1 (svn rev. 13369) starts on 31Oct2017 at 20: 4:15 

     This program is part of the open-source Quantum ESPRESSO suite
     for quantum simulation of materials; please cite
         "P. Giannozzi et al., J. Phys.:Condens. Matter 21 395502 (2009);
          URL http://www.quantum-espresso.org", 
     in publications or presentations arising from this work. More details at
     http://www.quantum-espresso.org/quote

     Parallel version (MPI), running on     1 processors

     reading grid info from file aluminium.bcc.dyn0    
  reading force constants from file aluminium.bcc.dyn1
  Dielectric Tensor not found
  nqs=            1
 q=   0.00000000  0.00000000  0.00000000
  reading force constants from file aluminium.bcc.dyn2
  nqs=           12
 q=   0.00000000 -0.08333333  0.08333333
 q=  -0.08333333  0.00000000  0.08333333
 q=   0.00000000  0.08333333  0.08333333
 q=   0.08333333  0.00000000  0.08333333
 q=   0.08333333 -0.08333333  0.00000000
 q=   0.08333333  0.08333333  0.00000000
 q=   0.00000000 -0.08333333 -0.08333333
 q=  -0.08333333  0.08333333  0.00000000
 q=   0.08333333  0.00000000 -0.08333333
 q=  -0.08333333  0.00000000 -0.08333333
 q=   0.00000000  0.08333333 -0.08333333
 q=  -0.08333333 -0.08333333  0.00000000
  reading force constants from file aluminium.bcc.dyn3
  nqs=           12
 q=   0.00000000 -0.16666667  0.16666667
 q=  -0.16666667  0.00000000  0.16666667
 q=   0.00000000  0.16666667  0.16666667
 q=   0.16666667  0.00000000  0.16666667
 q=   0.16666667 -0.16666667  0.00000000
 q=   0.16666667  0.16666667  0.00000000
 q=   0.00000000 -0.16666667 -0.16666667
 q=  -0.16666667  0.16666667  0.00000000
 q=   0.16666667  0.00000000 -0.16666667
 q=  -0.16666667  0.00000000 -0.16666667
 q=   0.00000000  0.16666667 -0.16666667
 q=  -0.16666667 -0.16666667  0.00000000
  reading force constants from file aluminium.bcc.dyn4
  nqs=           12
 q=   0.00000000 -0.25000000  0.25000000
 q=  -0.25000000  0.00000000  0.25000000
 q=   0.00000000  0.25000000  0.25000000
 q=   0.25000000  0.00000000  0.25000000
 q=   0.25000000 -0.25000000  0.00000000
 q=   0.25000000  0.25000000  0.00000000
 q=   0.00000000 -0.25000000 -0.25000000
 q=  -0.25000000  0.25000000  0.00000000
 q=   0.25000000  0.00000000 -0.25000000
 q=  -0.25000000  0.00000000 -0.25000000
 q=   0.00000000  0.25000000 -0.25000000
 q=  -0.25000000 -0.25000000  0.00000000
  reading force constants from file aluminium.bcc.dyn5
  nqs=           12
 q=   0.00000000 -0.33333333  0.33333333
 q=  -0.33333333  0.00000000  0.33333333
 q=   0.00000000  0.33333333  0.33333333
 q=   0.33333333  0.00000000  0.33333333
 q=   0.33333333 -0.33333333  0.00000000
 q=   0.33333333  0.33333333  0.00000000
 q=   0.00000000 -0.33333333 -0.33333333
 q=  -0.33333333  0.33333333  0.00000000
 q=   0.33333333  0.00000000 -0.33333333
 q=  -0.33333333  0.00000000 -0.33333333
 q=   0.00000000  0.33333333 -0.33333333
 q=  -0.33333333 -0.33333333  0.00000000
  reading force constants from file aluminium.bcc.dyn6
  nqs=           12
 q=   0.00000000 -0.41666667  0.41666667
 q=  -0.41666667  0.00000000  0.41666667
 q=   0.00000000  0.41666667  0.41666667
 q=   0.41666667  0.00000000  0.41666667
 q=   0.41666667 -0.41666667  0.00000000
 q=   0.41666667  0.41666667  0.00000000
 q=   0.00000000 -0.41666667 -0.41666667
 q=  -0.41666667  0.41666667  0.00000000
 q=   0.41666667  0.00000000 -0.41666667
 q=  -0.41666667  0.00000000 -0.41666667
 q=   0.00000000  0.41666667 -0.41666667
 q=  -0.41666667 -0.41666667  0.00000000
  reading force constants from file aluminium.bcc.dyn7
  nqs=            6
 q=   0.00000000  0.50000000 -0.50000000
 q=  -0.50000000  0.50000000  0.00000000
 q=  -0.50000000 -0.50000000  0.00000000
 q=  -0.50000000  0.00000000 -0.50000000
 q=   0.00000000 -0.50000000 -0.50000000
 q=   0.50000000  0.00000000 -0.50000000
  reading force constants from file aluminium.bcc.dyn8
  nqs=           24
 q=  -0.08333333 -0.08333333  0.16666667
 q=   0.08333333 -0.16666667  0.08333333
 q=  -0.08333333 -0.16666667  0.08333333
 q=  -0.08333333  0.08333333 -0.16666667
 q=  -0.08333333  0.16666667 -0.08333333
 q=   0.08333333  0.16666667 -0.08333333
 q=   0.08333333  0.08333333 -0.16666667
 q=   0.08333333 -0.16666667 -0.08333333
 q=   0.08333333  0.16666667  0.08333333
 q=   0.16666667  0.08333333  0.08333333
 q=  -0.08333333  0.08333333  0.16666667
 q=  -0.16666667 -0.08333333  0.08333333
 q=   0.08333333 -0.08333333 -0.16666667
 q=  -0.16666667  0.08333333 -0.08333333
 q=   0.08333333 -0.08333333  0.16666667
 q=  -0.08333333 -0.08333333 -0.16666667
 q=   0.16666667 -0.08333333 -0.08333333
 q=  -0.08333333  0.16666667  0.08333333
 q=  -0.08333333 -0.16666667 -0.08333333
 q=   0.08333333  0.08333333  0.16666667
 q=   0.16666667  0.08333333 -0.08333333
 q=  -0.16666667  0.08333333  0.08333333
 q=   0.16666667 -0.08333333  0.08333333
 q=  -0.16666667 -0.08333333 -0.08333333
  reading force constants from file aluminium.bcc.dyn9
  nqs=           48
 q=  -0.08333333 -0.16666667  0.25000000
 q=  -0.16666667 -0.08333333  0.25000000
 q=   0.08333333 -0.25000000  0.16666667
 q=  -0.08333333 -0.25000000  0.16666667
 q=  -0.08333333  0.16666667 -0.25000000
 q=  -0.08333333  0.25000000 -0.16666667
 q=   0.08333333  0.25000000 -0.16666667
 q=   0.08333333  0.16666667 -0.25000000
 q=   0.16666667 -0.25000000 -0.08333333
 q=   0.16666667  0.25000000  0.08333333
 q=   0.25000000  0.08333333  0.16666667
 q=  -0.08333333  0.16666667  0.25000000
 q=  -0.25000000 -0.08333333  0.16666667
 q=   0.08333333 -0.16666667 -0.25000000
 q=  -0.16666667  0.25000000 -0.08333333
 q=   0.16666667 -0.08333333 -0.25000000
 q=  -0.16666667  0.08333333 -0.25000000
 q=  -0.25000000  0.08333333 -0.16666667
 q=  -0.25000000  0.16666667 -0.08333333
 q=   0.25000000  0.16666667  0.08333333
 q=   0.08333333 -0.16666667  0.25000000
 q=  -0.25000000 -0.16666667  0.08333333
 q=   0.08333333 -0.25000000 -0.16666667
 q=   0.08333333  0.25000000  0.16666667
 q=   0.16666667  0.08333333 -0.25000000
 q=  -0.08333333 -0.16666667 -0.25000000
 q=   0.25000000 -0.08333333 -0.16666667
 q=   0.16666667 -0.08333333  0.25000000
 q=  -0.08333333  0.25000000  0.16666667
 q=  -0.16666667  0.08333333  0.25000000
 q=  -0.08333333 -0.25000000 -0.16666667
 q=   0.25000000 -0.16666667 -0.08333333
 q=   0.08333333  0.16666667  0.25000000
 q=   0.16666667  0.08333333  0.25000000
 q=  -0.16666667 -0.25000000  0.08333333
 q=   0.25000000  0.16666667 -0.08333333
 q=  -0.25000000  0.16666667  0.08333333
 q=   0.25000000 -0.16666667  0.08333333
 q=  -0.25000000 -0.16666667 -0.08333333
 q=  -0.16666667 -0.08333333 -0.25000000
 q=   0.16666667 -0.25000000  0.08333333
 q=  -0.16666667 -0.25000000 -0.08333333
 q=   0.16666667  0.25000000 -0.08333333
 q=  -0.16666667  0.25000000  0.08333333
 q=  -0.25000000  0.08333333  0.16666667
 q=  -0.25000000 -0.08333333 -0.16666667
 q=   0.25000000 -0.08333333  0.16666667
 q=   0.25000000  0.08333333 -0.16666667
  reading force constants from file aluminium.bcc.dyn10
  nqs=           48
 q=  -0.08333333 -0.25000000  0.33333333
 q=  -0.25000000 -0.08333333  0.33333333
 q=   0.08333333 -0.33333333  0.25000000
 q=  -0.08333333 -0.33333333  0.25000000
 q=  -0.08333333  0.25000000 -0.33333333
 q=  -0.08333333  0.33333333 -0.25000000
 q=   0.08333333  0.33333333 -0.25000000
 q=   0.08333333  0.25000000 -0.33333333
 q=   0.25000000 -0.33333333 -0.08333333
 q=   0.25000000  0.33333333  0.08333333
 q=   0.33333333  0.08333333  0.25000000
 q=  -0.08333333  0.25000000  0.33333333
 q=  -0.33333333 -0.08333333  0.25000000
 q=   0.08333333 -0.25000000 -0.33333333
 q=  -0.25000000  0.33333333 -0.08333333
 q=   0.25000000 -0.08333333 -0.33333333
 q=  -0.25000000  0.08333333 -0.33333333
 q=  -0.33333333  0.08333333 -0.25000000
 q=  -0.33333333  0.25000000 -0.08333333
 q=   0.33333333  0.25000000  0.08333333
 q=   0.08333333 -0.25000000  0.33333333
 q=  -0.33333333 -0.25000000  0.08333333
 q=   0.08333333 -0.33333333 -0.25000000
 q=   0.08333333  0.33333333  0.25000000
 q=   0.25000000  0.08333333 -0.33333333
 q=  -0.08333333 -0.25000000 -0.33333333
 q=   0.33333333 -0.08333333 -0.25000000
 q=   0.25000000 -0.08333333  0.33333333
 q=  -0.08333333  0.33333333  0.25000000
 q=  -0.25000000  0.08333333  0.33333333
 q=  -0.08333333 -0.33333333 -0.25000000
 q=   0.33333333 -0.25000000 -0.08333333
 q=   0.08333333  0.25000000  0.33333333
 q=   0.25000000  0.08333333  0.33333333
 q=  -0.25000000 -0.33333333  0.08333333
 q=   0.33333333  0.25000000 -0.08333333
 q=  -0.33333333  0.25000000  0.08333333
 q=   0.33333333 -0.25000000  0.08333333
 q=  -0.33333333 -0.25000000 -0.08333333
 q=  -0.25000000 -0.08333333 -0.33333333
 q=   0.25000000 -0.33333333  0.08333333
 q=  -0.25000000 -0.33333333 -0.08333333
 q=   0.25000000  0.33333333 -0.08333333
 q=  -0.25000000  0.33333333  0.08333333
 q=  -0.33333333  0.08333333  0.25000000
 q=  -0.33333333 -0.08333333 -0.25000000
 q=   0.33333333 -0.08333333  0.25000000
 q=   0.33333333  0.08333333 -0.25000000
  reading force constants from file aluminium.bcc.dyn11
  nqs=           48
 q=  -0.08333333 -0.33333333  0.41666667
 q=  -0.33333333 -0.08333333  0.41666667
 q=   0.08333333 -0.41666667  0.33333333
 q=  -0.08333333 -0.41666667  0.33333333
 q=  -0.08333333  0.33333333 -0.41666667
 q=  -0.08333333  0.41666667 -0.33333333
 q=   0.08333333  0.41666667 -0.33333333
 q=   0.08333333  0.33333333 -0.41666667
 q=   0.33333333 -0.41666667 -0.08333333
 q=   0.33333333  0.41666667  0.08333333
 q=   0.41666667  0.08333333  0.33333333
 q=  -0.08333333  0.33333333  0.41666667
 q=  -0.41666667 -0.08333333  0.33333333
 q=   0.08333333 -0.33333333 -0.41666667
 q=  -0.33333333  0.41666667 -0.08333333
 q=   0.33333333 -0.08333333 -0.41666667
 q=  -0.33333333  0.08333333 -0.41666667
 q=  -0.41666667  0.08333333 -0.33333333
 q=  -0.41666667  0.33333333 -0.08333333
 q=   0.41666667  0.33333333  0.08333333
 q=   0.08333333 -0.33333333  0.41666667
 q=  -0.41666667 -0.33333333  0.08333333
 q=   0.08333333 -0.41666667 -0.33333333
 q=   0.08333333  0.41666667  0.33333333
 q=   0.33333333  0.08333333 -0.41666667
 q=  -0.08333333 -0.33333333 -0.41666667
 q=   0.41666667 -0.08333333 -0.33333333
 q=   0.33333333 -0.08333333  0.41666667
 q=  -0.08333333  0.41666667  0.33333333
 q=  -0.33333333  0.08333333  0.41666667
 q=  -0.08333333 -0.41666667 -0.33333333
 q=   0.41666667 -0.33333333 -0.08333333
 q=   0.08333333  0.33333333  0.41666667
 q=   0.33333333  0.08333333  0.41666667
 q=  -0.33333333 -0.41666667  0.08333333
 q=   0.41666667  0.33333333 -0.08333333
 q=  -0.41666667  0.33333333  0.08333333
 q=   0.41666667 -0.33333333  0.08333333
 q=  -0.41666667 -0.33333333 -0.08333333
 q=  -0.33333333 -0.08333333 -0.41666667
 q=   0.33333333 -0.41666667  0.08333333
 q=  -0.33333333 -0.41666667 -0.08333333
 q=   0.33333333  0.41666667 -0.08333333
 q=  -0.33333333  0.41666667  0.08333333
 q=  -0.41666667  0.08333333  0.33333333
 q=  -0.41666667 -0.08333333 -0.33333333
 q=   0.41666667 -0.08333333  0.33333333
 q=   0.41666667  0.08333333 -0.33333333
  reading force constants from file aluminium.bcc.dyn12
  nqs=           48
 q=  -0.08333333  0.58333333 -0.50000000
 q=   0.58333333 -0.08333333 -0.50000000
 q=   0.08333333  0.50000000 -0.58333333
 q=  -0.08333333  0.50000000 -0.58333333
 q=  -0.08333333 -0.58333333  0.50000000
 q=  -0.08333333 -0.50000000  0.58333333
 q=   0.08333333 -0.50000000  0.58333333
 q=   0.08333333 -0.58333333  0.50000000
 q=  -0.58333333  0.50000000 -0.08333333
 q=  -0.58333333 -0.50000000  0.08333333
 q=  -0.50000000  0.08333333 -0.58333333
 q=  -0.08333333 -0.58333333 -0.50000000
 q=   0.50000000 -0.08333333 -0.58333333
 q=   0.08333333  0.58333333  0.50000000
 q=   0.58333333 -0.50000000 -0.08333333
 q=  -0.58333333 -0.08333333  0.50000000
 q=   0.58333333  0.08333333  0.50000000
 q=   0.50000000  0.08333333  0.58333333
 q=   0.50000000 -0.58333333 -0.08333333
 q=  -0.50000000 -0.58333333  0.08333333
 q=   0.08333333  0.58333333 -0.50000000
 q=   0.50000000  0.58333333  0.08333333
 q=   0.08333333  0.50000000  0.58333333
 q=   0.08333333 -0.50000000 -0.58333333
 q=  -0.58333333  0.08333333  0.50000000
 q=  -0.08333333  0.58333333  0.50000000
 q=  -0.50000000 -0.08333333  0.58333333
 q=  -0.58333333 -0.08333333 -0.50000000
 q=  -0.08333333 -0.50000000 -0.58333333
 q=   0.58333333  0.08333333 -0.50000000
 q=  -0.08333333  0.50000000  0.58333333
 q=  -0.50000000  0.58333333 -0.08333333
 q=   0.08333333 -0.58333333 -0.50000000
 q=  -0.58333333  0.08333333 -0.50000000
 q=   0.58333333  0.50000000  0.08333333
 q=  -0.50000000 -0.58333333 -0.08333333
 q=   0.50000000 -0.58333333  0.08333333
 q=  -0.50000000  0.58333333  0.08333333
 q=   0.50000000  0.58333333 -0.08333333
 q=   0.58333333 -0.08333333  0.50000000
 q=  -0.58333333  0.50000000  0.08333333
 q=   0.58333333  0.50000000 -0.08333333
 q=  -0.58333333 -0.50000000 -0.08333333
 q=   0.58333333 -0.50000000  0.08333333
 q=   0.50000000  0.08333333 -0.58333333
 q=   0.50000000 -0.08333333  0.58333333
 q=  -0.50000000 -0.08333333 -0.58333333
 q=  -0.50000000  0.08333333  0.58333333
  reading force constants from file aluminium.bcc.dyn13
  nqs=           24
 q=  -0.16666667 -0.16666667  0.33333333
 q=   0.16666667 -0.33333333  0.16666667
 q=  -0.16666667 -0.33333333  0.16666667
 q=  -0.16666667  0.16666667 -0.33333333
 q=  -0.16666667  0.33333333 -0.16666667
 q=   0.16666667  0.33333333 -0.16666667
 q=   0.16666667  0.16666667 -0.33333333
 q=   0.16666667 -0.33333333 -0.16666667
 q=   0.16666667  0.33333333  0.16666667
 q=   0.33333333  0.16666667  0.16666667
 q=  -0.16666667  0.16666667  0.33333333
 q=  -0.33333333 -0.16666667  0.16666667
 q=   0.16666667 -0.16666667 -0.33333333
 q=  -0.33333333  0.16666667 -0.16666667
 q=   0.16666667 -0.16666667  0.33333333
 q=  -0.16666667 -0.16666667 -0.33333333
 q=   0.33333333 -0.16666667 -0.16666667
 q=  -0.16666667  0.33333333  0.16666667
 q=  -0.16666667 -0.33333333 -0.16666667
 q=   0.16666667  0.16666667  0.33333333
 q=   0.33333333  0.16666667 -0.16666667
 q=  -0.33333333  0.16666667  0.16666667
 q=   0.33333333 -0.16666667  0.16666667
 q=  -0.33333333 -0.16666667 -0.16666667
  reading force constants from file aluminium.bcc.dyn14
  nqs=           48
 q=  -0.16666667 -0.25000000  0.41666667
 q=  -0.25000000 -0.16666667  0.41666667
 q=   0.16666667 -0.41666667  0.25000000
 q=  -0.16666667 -0.41666667  0.25000000
 q=  -0.16666667  0.25000000 -0.41666667
 q=  -0.16666667  0.41666667 -0.25000000
 q=   0.16666667  0.41666667 -0.25000000
 q=   0.16666667  0.25000000 -0.41666667
 q=   0.25000000 -0.41666667 -0.16666667
 q=   0.25000000  0.41666667  0.16666667
 q=   0.41666667  0.16666667  0.25000000
 q=  -0.16666667  0.25000000  0.41666667
 q=  -0.41666667 -0.16666667  0.25000000
 q=   0.16666667 -0.25000000 -0.41666667
 q=  -0.25000000  0.41666667 -0.16666667
 q=   0.25000000 -0.16666667 -0.41666667
 q=  -0.25000000  0.16666667 -0.41666667
 q=  -0.41666667  0.16666667 -0.25000000
 q=  -0.41666667  0.25000000 -0.16666667
 q=   0.41666667  0.25000000  0.16666667
 q=   0.16666667 -0.25000000  0.41666667
 q=  -0.41666667 -0.25000000  0.16666667
 q=   0.16666667 -0.41666667 -0.25000000
 q=   0.16666667  0.41666667  0.25000000
 q=   0.25000000  0.16666667 -0.41666667
 q=  -0.16666667 -0.25000000 -0.41666667
 q=   0.41666667 -0.16666667 -0.25000000
 q=   0.25000000 -0.16666667  0.41666667
 q=  -0.16666667  0.41666667  0.25000000
 q=  -0.25000000  0.16666667  0.41666667
 q=  -0.16666667 -0.41666667 -0.25000000
 q=   0.41666667 -0.25000000 -0.16666667
 q=   0.16666667  0.25000000  0.41666667
 q=   0.25000000  0.16666667  0.41666667
 q=  -0.25000000 -0.41666667  0.16666667
 q=   0.41666667  0.25000000 -0.16666667
 q=  -0.41666667  0.25000000  0.16666667
 q=   0.41666667 -0.25000000  0.16666667
 q=  -0.41666667 -0.25000000 -0.16666667
 q=  -0.25000000 -0.16666667 -0.41666667
 q=   0.25000000 -0.41666667  0.16666667
 q=  -0.25000000 -0.41666667 -0.16666667
 q=   0.25000000  0.41666667 -0.16666667
 q=  -0.25000000  0.41666667  0.16666667
 q=  -0.41666667  0.16666667  0.25000000
 q=  -0.41666667 -0.16666667 -0.25000000
 q=   0.41666667 -0.16666667  0.25000000
 q=   0.41666667  0.16666667 -0.25000000
  reading force constants from file aluminium.bcc.dyn15
  nqs=           48
 q=  -0.16666667  0.66666667 -0.50000000
 q=   0.66666667 -0.16666667 -0.50000000
 q=   0.16666667  0.50000000 -0.66666667
 q=  -0.16666667  0.50000000 -0.66666667
 q=  -0.16666667 -0.66666667  0.50000000
 q=  -0.16666667 -0.50000000  0.66666667
 q=   0.16666667 -0.50000000  0.66666667
 q=   0.16666667 -0.66666667  0.50000000
 q=  -0.66666667  0.50000000 -0.16666667
 q=  -0.66666667 -0.50000000  0.16666667
 q=  -0.50000000  0.16666667 -0.66666667
 q=  -0.16666667 -0.66666667 -0.50000000
 q=   0.50000000 -0.16666667 -0.66666667
 q=   0.16666667  0.66666667  0.50000000
 q=   0.66666667 -0.50000000 -0.16666667
 q=  -0.66666667 -0.16666667  0.50000000
 q=   0.66666667  0.16666667  0.50000000
 q=   0.50000000  0.16666667  0.66666667
 q=   0.50000000 -0.66666667 -0.16666667
 q=  -0.50000000 -0.66666667  0.16666667
 q=   0.16666667  0.66666667 -0.50000000
 q=   0.50000000  0.66666667  0.16666667
 q=   0.16666667  0.50000000  0.66666667
 q=   0.16666667 -0.50000000 -0.66666667
 q=  -0.66666667  0.16666667  0.50000000
 q=  -0.16666667  0.66666667  0.50000000
 q=  -0.50000000 -0.16666667  0.66666667
 q=  -0.66666667 -0.16666667 -0.50000000
 q=  -0.16666667 -0.50000000 -0.66666667
 q=   0.66666667  0.16666667 -0.50000000
 q=  -0.16666667  0.50000000  0.66666667
 q=  -0.50000000  0.66666667 -0.16666667
 q=   0.16666667 -0.66666667 -0.50000000
 q=  -0.66666667  0.16666667 -0.50000000
 q=   0.66666667  0.50000000  0.16666667
 q=  -0.50000000 -0.66666667 -0.16666667
 q=   0.50000000 -0.66666667  0.16666667
 q=  -0.50000000  0.66666667  0.16666667
 q=   0.50000000  0.66666667 -0.16666667
 q=   0.66666667 -0.16666667  0.50000000
 q=  -0.66666667  0.50000000  0.16666667
 q=   0.66666667  0.50000000 -0.16666667
 q=  -0.66666667 -0.50000000 -0.16666667
 q=   0.66666667 -0.50000000  0.16666667
 q=   0.50000000  0.16666667 -0.66666667
 q=   0.50000000 -0.16666667  0.66666667
 q=  -0.50000000 -0.16666667 -0.66666667
 q=  -0.50000000  0.16666667  0.66666667
  reading force constants from file aluminium.bcc.dyn16
  nqs=           24
 q=  -0.16666667  0.58333333 -0.41666667
 q=   0.16666667  0.41666667 -0.58333333
 q=  -0.16666667  0.41666667 -0.58333333
 q=   0.58333333 -0.16666667 -0.41666667
 q=   0.16666667 -0.41666667  0.58333333
 q=  -0.58333333  0.41666667 -0.16666667
 q=  -0.58333333 -0.41666667  0.16666667
 q=  -0.41666667  0.16666667 -0.58333333
 q=  -0.16666667 -0.58333333 -0.41666667
 q=   0.41666667 -0.16666667 -0.58333333
 q=   0.16666667  0.58333333  0.41666667
 q=   0.58333333 -0.41666667 -0.16666667
 q=   0.41666667  0.16666667  0.58333333
 q=  -0.41666667 -0.58333333  0.16666667
 q=   0.16666667  0.41666667  0.58333333
 q=  -0.58333333  0.16666667  0.41666667
 q=  -0.16666667  0.58333333  0.41666667
 q=  -0.58333333 -0.16666667 -0.41666667
 q=   0.58333333  0.16666667 -0.41666667
 q=  -0.41666667 -0.58333333 -0.16666667
 q=   0.41666667 -0.58333333  0.16666667
 q=  -0.41666667  0.58333333  0.16666667
 q=   0.41666667  0.58333333 -0.16666667
 q=   0.58333333 -0.16666667  0.41666667
  reading force constants from file aluminium.bcc.dyn17
  nqs=           24
 q=  -0.25000000  0.75000000 -0.50000000
 q=   0.25000000  0.50000000 -0.75000000
 q=  -0.25000000  0.50000000 -0.75000000
 q=  -0.25000000 -0.75000000  0.50000000
 q=  -0.25000000 -0.50000000  0.75000000
 q=   0.25000000 -0.50000000  0.75000000
 q=   0.25000000 -0.75000000  0.50000000
 q=  -0.75000000  0.50000000 -0.25000000
 q=  -0.75000000 -0.50000000  0.25000000
 q=  -0.50000000  0.25000000 -0.75000000
 q=  -0.25000000 -0.75000000 -0.50000000
 q=   0.50000000 -0.25000000 -0.75000000
 q=   0.25000000  0.75000000  0.50000000
 q=   0.50000000  0.25000000  0.75000000
 q=   0.25000000  0.75000000 -0.50000000
 q=  -0.25000000  0.75000000  0.50000000
 q=  -0.50000000 -0.25000000  0.75000000
 q=  -0.25000000 -0.50000000 -0.75000000
 q=  -0.25000000  0.50000000  0.75000000
 q=   0.25000000 -0.75000000 -0.50000000
 q=  -0.50000000 -0.75000000 -0.25000000
 q=   0.50000000 -0.75000000  0.25000000
 q=  -0.50000000  0.75000000  0.25000000
 q=   0.50000000  0.75000000 -0.25000000
  reading force constants from file aluminium.bcc.dyn18
  nqs=           48
 q=  -0.25000000  0.66666667 -0.41666667
 q=   0.66666667 -0.25000000 -0.41666667
 q=   0.25000000  0.41666667 -0.66666667
 q=  -0.25000000  0.41666667 -0.66666667
 q=  -0.25000000 -0.66666667  0.41666667
 q=  -0.25000000 -0.41666667  0.66666667
 q=   0.25000000 -0.41666667  0.66666667
 q=   0.25000000 -0.66666667  0.41666667
 q=  -0.66666667  0.41666667 -0.25000000
 q=  -0.66666667 -0.41666667  0.25000000
 q=  -0.41666667  0.25000000 -0.66666667
 q=  -0.25000000 -0.66666667 -0.41666667
 q=   0.41666667 -0.25000000 -0.66666667
 q=   0.25000000  0.66666667  0.41666667
 q=   0.66666667 -0.41666667 -0.25000000
 q=  -0.66666667 -0.25000000  0.41666667
 q=   0.66666667  0.25000000  0.41666667
 q=   0.41666667  0.25000000  0.66666667
 q=   0.41666667 -0.66666667 -0.25000000
 q=  -0.41666667 -0.66666667  0.25000000
 q=   0.25000000  0.66666667 -0.41666667
 q=   0.41666667  0.66666667  0.25000000
 q=   0.25000000  0.41666667  0.66666667
 q=   0.25000000 -0.41666667 -0.66666667
 q=  -0.66666667  0.25000000  0.41666667
 q=  -0.25000000  0.66666667  0.41666667
 q=  -0.41666667 -0.25000000  0.66666667
 q=  -0.66666667 -0.25000000 -0.41666667
 q=  -0.25000000 -0.41666667 -0.66666667
 q=   0.66666667  0.25000000 -0.41666667
 q=  -0.25000000  0.41666667  0.66666667
 q=  -0.41666667  0.66666667 -0.25000000
 q=   0.25000000 -0.66666667 -0.41666667
 q=  -0.66666667  0.25000000 -0.41666667
 q=   0.66666667  0.41666667  0.25000000
 q=  -0.41666667 -0.66666667 -0.25000000
 q=   0.41666667 -0.66666667  0.25000000
 q=  -0.41666667  0.66666667  0.25000000
 q=   0.41666667  0.66666667 -0.25000000
 q=   0.66666667 -0.25000000  0.41666667
 q=  -0.66666667  0.41666667  0.25000000
 q=   0.66666667  0.41666667 -0.25000000
 q=  -0.66666667 -0.41666667 -0.25000000
 q=   0.66666667 -0.41666667  0.25000000
 q=   0.41666667  0.25000000 -0.66666667
 q=   0.41666667 -0.25000000  0.66666667
 q=  -0.41666667 -0.25000000 -0.66666667
 q=  -0.41666667  0.25000000  0.66666667
  reading force constants from file aluminium.bcc.dyn19
  nqs=            8
 q=  -0.33333333  0.66666667 -0.33333333
 q=   0.33333333 -0.33333333  0.66666667
 q=   0.33333333 -0.66666667  0.33333333
 q=  -0.66666667  0.33333333 -0.33333333
 q=  -0.66666667 -0.33333333  0.33333333
 q=  -0.33333333  0.33333333 -0.66666667
 q=  -0.33333333 -0.66666667 -0.33333333
 q=  -0.33333333  0.66666667  0.33333333
  reading force constants from file aluminium.bcc.dyn20
  nqs=            6
 q=   0.00000000  0.00000000  0.16666667
 q=   0.00000000 -0.16666667  0.00000000
 q=   0.00000000  0.16666667  0.00000000
 q=   0.16666667  0.00000000  0.00000000
 q=  -0.16666667  0.00000000  0.00000000
 q=   0.00000000  0.00000000 -0.16666667
  reading force constants from file aluminium.bcc.dyn21
  nqs=           24
 q=   0.00000000 -0.08333333  0.25000000
 q=   0.00000000  0.08333333  0.25000000
 q=  -0.08333333  0.00000000  0.25000000
 q=   0.08333333  0.00000000  0.25000000
 q=   0.08333333 -0.25000000  0.00000000
 q=   0.08333333  0.25000000  0.00000000
 q=   0.25000000  0.00000000  0.08333333
 q=   0.00000000  0.25000000 -0.08333333
 q=  -0.25000000  0.00000000  0.08333333
 q=   0.00000000 -0.08333333 -0.25000000
 q=   0.00000000 -0.25000000  0.08333333
 q=   0.08333333  0.00000000 -0.25000000
 q=  -0.08333333  0.00000000 -0.25000000
 q=  -0.25000000  0.00000000 -0.08333333
 q=  -0.25000000  0.08333333  0.00000000
 q=   0.25000000  0.08333333  0.00000000
 q=  -0.08333333  0.25000000  0.00000000
 q=  -0.25000000 -0.08333333  0.00000000
 q=   0.00000000 -0.25000000 -0.08333333
 q=   0.00000000  0.25000000  0.08333333
 q=   0.00000000  0.08333333 -0.25000000
 q=   0.25000000  0.00000000 -0.08333333
 q=   0.25000000 -0.08333333  0.00000000
 q=  -0.08333333 -0.25000000  0.00000000
  reading force constants from file aluminium.bcc.dyn22
  nqs=           24
 q=   0.00000000 -0.16666667  0.33333333
 q=   0.00000000  0.16666667  0.33333333
 q=  -0.16666667  0.00000000  0.33333333
 q=   0.16666667  0.00000000  0.33333333
 q=   0.16666667 -0.33333333  0.00000000
 q=   0.16666667  0.33333333  0.00000000
 q=   0.33333333  0.00000000  0.16666667
 q=   0.00000000  0.33333333 -0.16666667
 q=  -0.33333333  0.00000000  0.16666667
 q=   0.00000000 -0.16666667 -0.33333333
 q=   0.00000000 -0.33333333  0.16666667
 q=   0.16666667  0.00000000 -0.33333333
 q=  -0.16666667  0.00000000 -0.33333333
 q=  -0.33333333  0.00000000 -0.16666667
 q=  -0.33333333  0.16666667  0.00000000
 q=   0.33333333  0.16666667  0.00000000
 q=  -0.16666667  0.33333333  0.00000000
 q=  -0.33333333 -0.16666667  0.00000000
 q=   0.00000000 -0.33333333 -0.16666667
 q=   0.00000000  0.33333333  0.16666667
 q=   0.00000000  0.16666667 -0.33333333
 q=   0.33333333  0.00000000 -0.16666667
 q=   0.33333333 -0.16666667  0.00000000
 q=  -0.16666667 -0.33333333  0.00000000
  reading force constants from file aluminium.bcc.dyn23
  nqs=           24
 q=   0.00000000 -0.25000000  0.41666667
 q=   0.00000000  0.25000000  0.41666667
 q=  -0.25000000  0.00000000  0.41666667
 q=   0.25000000  0.00000000  0.41666667
 q=   0.25000000 -0.41666667  0.00000000
 q=   0.25000000  0.41666667  0.00000000
 q=   0.41666667  0.00000000  0.25000000
 q=   0.00000000  0.41666667 -0.25000000
 q=  -0.41666667  0.00000000  0.25000000
 q=   0.00000000 -0.25000000 -0.41666667
 q=   0.00000000 -0.41666667  0.25000000
 q=   0.25000000  0.00000000 -0.41666667
 q=  -0.25000000  0.00000000 -0.41666667
 q=  -0.41666667  0.00000000 -0.25000000
 q=  -0.41666667  0.25000000  0.00000000
 q=   0.41666667  0.25000000  0.00000000
 q=  -0.25000000  0.41666667  0.00000000
 q=  -0.41666667 -0.25000000  0.00000000
 q=   0.00000000 -0.41666667 -0.25000000
 q=   0.00000000  0.41666667  0.25000000
 q=   0.00000000  0.25000000 -0.41666667
 q=   0.41666667  0.00000000 -0.25000000
 q=   0.41666667 -0.25000000  0.00000000
 q=  -0.25000000 -0.41666667  0.00000000
  reading force constants from file aluminium.bcc.dyn24
  nqs=           24
 q=   0.00000000 -0.33333333  0.50000000
 q=   0.00000000  0.33333333  0.50000000
 q=  -0.33333333  0.00000000  0.50000000
 q=   0.33333333  0.00000000  0.50000000
 q=   0.33333333 -0.50000000  0.00000000
 q=   0.33333333  0.50000000  0.00000000
 q=   0.50000000  0.00000000  0.33333333
 q=   0.00000000  0.50000000 -0.33333333
 q=  -0.50000000  0.00000000  0.33333333
 q=   0.00000000 -0.33333333 -0.50000000
 q=   0.00000000 -0.50000000  0.33333333
 q=   0.33333333  0.00000000 -0.50000000
 q=  -0.33333333  0.00000000 -0.50000000
 q=  -0.50000000  0.00000000 -0.33333333
 q=  -0.50000000  0.33333333  0.00000000
 q=   0.50000000  0.33333333  0.00000000
 q=  -0.33333333  0.50000000  0.00000000
 q=  -0.50000000 -0.33333333  0.00000000
 q=   0.00000000 -0.50000000 -0.33333333
 q=   0.00000000  0.50000000  0.33333333
 q=   0.00000000  0.33333333 -0.50000000
 q=   0.50000000  0.00000000 -0.33333333
 q=   0.50000000 -0.33333333  0.00000000
 q=  -0.33333333 -0.50000000  0.00000000
  reading force constants from file aluminium.bcc.dyn25
  nqs=           12
 q=   0.00000000  0.58333333 -0.41666667
 q=  -0.58333333  0.00000000 -0.41666667
 q=   0.58333333  0.00000000 -0.41666667
 q=   0.00000000 -0.58333333 -0.41666667
 q=  -0.58333333  0.41666667  0.00000000
 q=  -0.58333333 -0.41666667  0.00000000
 q=  -0.41666667  0.00000000 -0.58333333
 q=   0.41666667  0.00000000 -0.58333333
 q=   0.00000000  0.58333333  0.41666667
 q=   0.00000000  0.41666667 -0.58333333
 q=  -0.41666667 -0.58333333  0.00000000
 q=   0.58333333 -0.41666667  0.00000000
  reading force constants from file aluminium.bcc.dyn26
  nqs=           24
 q=  -0.08333333 -0.08333333  0.33333333
 q=  -0.08333333  0.33333333 -0.08333333
 q=   0.08333333  0.33333333 -0.08333333
 q=   0.08333333 -0.08333333  0.33333333
 q=  -0.08333333  0.08333333  0.33333333
 q=   0.08333333  0.08333333  0.33333333
 q=   0.08333333 -0.33333333 -0.08333333
 q=   0.08333333  0.33333333  0.08333333
 q=   0.33333333  0.08333333  0.08333333
 q=  -0.33333333 -0.08333333  0.08333333
 q=   0.08333333 -0.08333333 -0.33333333
 q=  -0.08333333 -0.33333333  0.08333333
 q=  -0.08333333  0.08333333 -0.33333333
 q=  -0.33333333  0.08333333 -0.08333333
 q=   0.08333333  0.08333333 -0.33333333
 q=  -0.08333333 -0.08333333 -0.33333333
 q=   0.33333333 -0.08333333 -0.08333333
 q=  -0.08333333  0.33333333  0.08333333
 q=  -0.08333333 -0.33333333 -0.08333333
 q=   0.08333333 -0.33333333  0.08333333
 q=   0.33333333  0.08333333 -0.08333333
 q=  -0.33333333  0.08333333  0.08333333
 q=   0.33333333 -0.08333333  0.08333333
 q=  -0.33333333 -0.08333333 -0.08333333
  reading force constants from file aluminium.bcc.dyn27
  nqs=           48
 q=  -0.08333333 -0.16666667  0.41666667
 q=  -0.16666667 -0.08333333  0.41666667
 q=  -0.08333333  0.41666667 -0.16666667
 q=   0.08333333  0.41666667 -0.16666667
 q=   0.16666667 -0.08333333  0.41666667
 q=  -0.16666667  0.08333333  0.41666667
 q=   0.08333333  0.16666667  0.41666667
 q=   0.16666667  0.08333333  0.41666667
 q=   0.16666667 -0.41666667 -0.08333333
 q=   0.16666667  0.41666667  0.08333333
 q=   0.41666667  0.08333333  0.16666667
 q=  -0.08333333  0.16666667  0.41666667
 q=  -0.41666667 -0.08333333  0.16666667
 q=   0.08333333 -0.16666667 -0.41666667
 q=  -0.08333333 -0.41666667  0.16666667
 q=   0.16666667 -0.08333333 -0.41666667
 q=  -0.16666667  0.08333333 -0.41666667
 q=  -0.41666667  0.08333333 -0.16666667
 q=  -0.41666667  0.16666667 -0.08333333
 q=   0.41666667  0.16666667  0.08333333
 q=  -0.16666667  0.41666667 -0.08333333
 q=  -0.41666667 -0.16666667  0.08333333
 q=   0.08333333 -0.41666667 -0.16666667
 q=   0.08333333  0.41666667  0.16666667
 q=   0.16666667  0.08333333 -0.41666667
 q=  -0.08333333 -0.16666667 -0.41666667
 q=  -0.08333333  0.16666667 -0.41666667
 q=   0.41666667 -0.08333333 -0.16666667
 q=  -0.08333333  0.41666667  0.16666667
 q=   0.41666667 -0.16666667 -0.08333333
 q=  -0.08333333 -0.41666667 -0.16666667
 q=   0.08333333 -0.41666667  0.16666667
 q=   0.08333333 -0.16666667  0.41666667
 q=   0.08333333  0.16666667 -0.41666667
 q=  -0.16666667 -0.41666667  0.08333333
 q=   0.41666667  0.16666667 -0.08333333
 q=  -0.41666667  0.16666667  0.08333333
 q=   0.41666667 -0.16666667  0.08333333
 q=  -0.41666667 -0.16666667 -0.08333333
 q=  -0.16666667 -0.08333333 -0.41666667
 q=   0.16666667 -0.41666667  0.08333333
 q=  -0.16666667 -0.41666667 -0.08333333
 q=   0.16666667  0.41666667 -0.08333333
 q=  -0.16666667  0.41666667  0.08333333
 q=  -0.41666667  0.08333333  0.16666667
 q=  -0.41666667 -0.08333333 -0.16666667
 q=   0.41666667 -0.08333333  0.16666667
 q=   0.41666667  0.08333333 -0.16666667
  reading force constants from file aluminium.bcc.dyn28
  nqs=           48
 q=  -0.08333333 -0.25000000  0.50000000
 q=  -0.25000000 -0.08333333  0.50000000
 q=  -0.08333333  0.50000000 -0.25000000
 q=   0.08333333  0.50000000 -0.25000000
 q=   0.25000000 -0.08333333  0.50000000
 q=  -0.25000000  0.08333333  0.50000000
 q=   0.08333333  0.25000000  0.50000000
 q=   0.25000000  0.08333333  0.50000000
 q=   0.25000000 -0.50000000 -0.08333333
 q=   0.25000000  0.50000000  0.08333333
 q=   0.50000000  0.08333333  0.25000000
 q=  -0.08333333  0.25000000  0.50000000
 q=  -0.50000000 -0.08333333  0.25000000
 q=   0.08333333 -0.25000000 -0.50000000
 q=  -0.08333333 -0.50000000  0.25000000
 q=   0.25000000 -0.08333333 -0.50000000
 q=  -0.25000000  0.08333333 -0.50000000
 q=  -0.50000000  0.08333333 -0.25000000
 q=  -0.50000000  0.25000000 -0.08333333
 q=   0.50000000  0.25000000  0.08333333
 q=  -0.25000000  0.50000000 -0.08333333
 q=  -0.50000000 -0.25000000  0.08333333
 q=   0.08333333 -0.50000000 -0.25000000
 q=   0.08333333  0.50000000  0.25000000
 q=   0.25000000  0.08333333 -0.50000000
 q=  -0.08333333 -0.25000000 -0.50000000
 q=  -0.08333333  0.25000000 -0.50000000
 q=   0.50000000 -0.08333333 -0.25000000
 q=  -0.08333333  0.50000000  0.25000000
 q=   0.50000000 -0.25000000 -0.08333333
 q=  -0.08333333 -0.50000000 -0.25000000
 q=   0.08333333 -0.50000000  0.25000000
 q=   0.08333333 -0.25000000  0.50000000
 q=   0.08333333  0.25000000 -0.50000000
 q=  -0.25000000 -0.50000000  0.08333333
 q=   0.50000000  0.25000000 -0.08333333
 q=  -0.50000000  0.25000000  0.08333333
 q=   0.50000000 -0.25000000  0.08333333
 q=  -0.50000000 -0.25000000 -0.08333333
 q=  -0.25000000 -0.08333333 -0.50000000
 q=   0.25000000 -0.50000000  0.08333333
 q=  -0.25000000 -0.50000000 -0.08333333
 q=   0.25000000  0.50000000 -0.08333333
 q=  -0.25000000  0.50000000  0.08333333
 q=  -0.50000000  0.08333333  0.25000000
 q=  -0.50000000 -0.08333333 -0.25000000
 q=   0.50000000 -0.08333333  0.25000000
 q=   0.50000000  0.08333333 -0.25000000
  reading force constants from file aluminium.bcc.dyn29
  nqs=           48
 q=  -0.08333333  0.66666667 -0.41666667
 q=   0.66666667 -0.08333333 -0.41666667
 q=  -0.08333333 -0.41666667  0.66666667
 q=   0.08333333 -0.41666667  0.66666667
 q=  -0.66666667 -0.08333333 -0.41666667
 q=   0.66666667  0.08333333 -0.41666667
 q=   0.08333333 -0.66666667 -0.41666667
 q=  -0.66666667  0.08333333 -0.41666667
 q=  -0.66666667  0.41666667 -0.08333333
 q=  -0.66666667 -0.41666667  0.08333333
 q=  -0.41666667  0.08333333 -0.66666667
 q=  -0.08333333 -0.66666667 -0.41666667
 q=   0.41666667 -0.08333333 -0.66666667
 q=   0.08333333  0.66666667  0.41666667
 q=  -0.08333333  0.41666667 -0.66666667
 q=  -0.66666667 -0.08333333  0.41666667
 q=   0.66666667  0.08333333  0.41666667
 q=   0.41666667  0.08333333  0.66666667
 q=   0.41666667 -0.66666667 -0.08333333
 q=  -0.41666667 -0.66666667  0.08333333
 q=   0.66666667 -0.41666667 -0.08333333
 q=   0.41666667  0.66666667  0.08333333
 q=   0.08333333  0.41666667  0.66666667
 q=   0.08333333 -0.41666667 -0.66666667
 q=  -0.66666667  0.08333333  0.41666667
 q=  -0.08333333  0.66666667  0.41666667
 q=  -0.08333333 -0.66666667  0.41666667
 q=  -0.41666667 -0.08333333  0.66666667
 q=  -0.08333333 -0.41666667 -0.66666667
 q=  -0.41666667  0.66666667 -0.08333333
 q=  -0.08333333  0.41666667  0.66666667
 q=   0.08333333  0.41666667 -0.66666667
 q=   0.08333333  0.66666667 -0.41666667
 q=   0.08333333 -0.66666667  0.41666667
 q=   0.66666667  0.41666667  0.08333333
 q=  -0.41666667 -0.66666667 -0.08333333
 q=   0.41666667 -0.66666667  0.08333333
 q=  -0.41666667  0.66666667  0.08333333
 q=   0.41666667  0.66666667 -0.08333333
 q=   0.66666667 -0.08333333  0.41666667
 q=  -0.66666667  0.41666667  0.08333333
 q=   0.66666667  0.41666667 -0.08333333
 q=  -0.66666667 -0.41666667 -0.08333333
 q=   0.66666667 -0.41666667  0.08333333
 q=   0.41666667  0.08333333 -0.66666667
 q=   0.41666667 -0.08333333  0.66666667
 q=  -0.41666667 -0.08333333 -0.66666667
 q=  -0.41666667  0.08333333  0.66666667
  reading force constants from file aluminium.bcc.dyn30
  nqs=            8
 q=  -0.16666667  0.16666667  0.16666667
 q=   0.16666667 -0.16666667  0.16666667
 q=  -0.16666667 -0.16666667 -0.16666667
 q=   0.16666667  0.16666667  0.16666667
 q=   0.16666667  0.16666667 -0.16666667
 q=  -0.16666667 -0.16666667  0.16666667
 q=  -0.16666667  0.16666667 -0.16666667
 q=   0.16666667 -0.16666667 -0.16666667
  reading force constants from file aluminium.bcc.dyn31
  nqs=           24
 q=  -0.16666667 -0.16666667  0.50000000
 q=   0.16666667  0.16666667  0.50000000
 q=   0.16666667  0.50000000  0.16666667
 q=  -0.50000000  0.16666667 -0.16666667
 q=  -0.50000000 -0.16666667  0.16666667
 q=  -0.16666667  0.50000000 -0.16666667
 q=   0.16666667 -0.50000000 -0.16666667
 q=   0.16666667  0.50000000 -0.16666667
 q=   0.50000000  0.16666667  0.16666667
 q=  -0.16666667  0.16666667  0.50000000
 q=   0.16666667 -0.16666667 -0.50000000
 q=  -0.16666667 -0.50000000  0.16666667
 q=  -0.16666667  0.16666667 -0.50000000
 q=   0.16666667 -0.16666667  0.50000000
 q=   0.16666667  0.16666667 -0.50000000
 q=  -0.16666667 -0.16666667 -0.50000000
 q=   0.50000000 -0.16666667 -0.16666667
 q=  -0.16666667  0.50000000  0.16666667
 q=  -0.16666667 -0.50000000 -0.16666667
 q=   0.16666667 -0.50000000  0.16666667
 q=   0.50000000  0.16666667 -0.16666667
 q=  -0.50000000  0.16666667  0.16666667
 q=   0.50000000 -0.16666667  0.16666667
 q=  -0.50000000 -0.16666667 -0.16666667
  reading force constants from file aluminium.bcc.dyn32
  nqs=           48
 q=  -0.16666667  0.75000000 -0.41666667
 q=   0.75000000 -0.16666667 -0.41666667
 q=  -0.75000000  0.16666667 -0.41666667
 q=  -0.75000000 -0.41666667  0.16666667
 q=   0.41666667  0.16666667  0.75000000
 q=   0.41666667  0.75000000  0.16666667
 q=   0.16666667 -0.75000000 -0.41666667
 q=  -0.16666667 -0.41666667  0.75000000
 q=  -0.75000000  0.41666667 -0.16666667
 q=   0.16666667 -0.41666667  0.75000000
 q=  -0.41666667  0.16666667 -0.75000000
 q=  -0.16666667 -0.75000000 -0.41666667
 q=   0.41666667 -0.16666667 -0.75000000
 q=   0.16666667  0.75000000  0.41666667
 q=  -0.16666667  0.41666667 -0.75000000
 q=  -0.75000000 -0.16666667  0.41666667
 q=   0.75000000  0.16666667  0.41666667
 q=  -0.75000000 -0.16666667 -0.41666667
 q=   0.41666667 -0.75000000 -0.16666667
 q=  -0.41666667 -0.75000000  0.16666667
 q=   0.75000000 -0.41666667 -0.16666667
 q=   0.75000000  0.16666667 -0.41666667
 q=   0.16666667  0.41666667  0.75000000
 q=   0.16666667 -0.41666667 -0.75000000
 q=  -0.75000000  0.16666667  0.41666667
 q=  -0.16666667  0.75000000  0.41666667
 q=  -0.16666667 -0.75000000  0.41666667
 q=  -0.41666667 -0.16666667  0.75000000
 q=  -0.16666667 -0.41666667 -0.75000000
 q=  -0.41666667  0.75000000 -0.16666667
 q=  -0.16666667  0.41666667  0.75000000
 q=   0.16666667  0.41666667 -0.75000000
 q=   0.16666667  0.75000000 -0.41666667
 q=   0.16666667 -0.75000000  0.41666667
 q=   0.75000000  0.41666667  0.16666667
 q=  -0.41666667 -0.75000000 -0.16666667
 q=   0.41666667 -0.75000000  0.16666667
 q=  -0.41666667  0.75000000  0.16666667
 q=   0.41666667  0.75000000 -0.16666667
 q=   0.75000000 -0.16666667  0.41666667
 q=  -0.75000000  0.41666667  0.16666667
 q=   0.75000000  0.41666667 -0.16666667
 q=  -0.75000000 -0.41666667 -0.16666667
 q=   0.75000000 -0.41666667  0.16666667
 q=   0.41666667  0.16666667 -0.75000000
 q=   0.41666667 -0.16666667  0.75000000
 q=  -0.41666667 -0.16666667 -0.75000000
 q=  -0.41666667  0.16666667  0.75000000
  reading force constants from file aluminium.bcc.dyn33
  nqs=           24
 q=  -0.16666667  0.66666667 -0.33333333
 q=  -0.66666667  0.16666667 -0.33333333
 q=  -0.66666667 -0.33333333  0.16666667
 q=   0.16666667 -0.66666667 -0.33333333
 q=   0.66666667 -0.16666667 -0.33333333
 q=  -0.66666667  0.33333333 -0.16666667
 q=   0.16666667 -0.33333333  0.66666667
 q=  -0.33333333  0.16666667 -0.66666667
 q=  -0.16666667 -0.66666667 -0.33333333
 q=   0.33333333 -0.16666667 -0.66666667
 q=   0.16666667  0.66666667  0.33333333
 q=  -0.16666667  0.33333333 -0.66666667
 q=  -0.66666667 -0.16666667 -0.33333333
 q=  -0.33333333 -0.66666667  0.16666667
 q=   0.66666667 -0.33333333 -0.16666667
 q=   0.66666667  0.16666667 -0.33333333
 q=  -0.66666667  0.16666667  0.33333333
 q=  -0.16666667  0.66666667  0.33333333
 q=   0.16666667  0.33333333 -0.66666667
 q=  -0.33333333 -0.66666667 -0.16666667
 q=   0.33333333 -0.66666667  0.16666667
 q=  -0.33333333  0.66666667  0.16666667
 q=   0.33333333  0.66666667 -0.16666667
 q=   0.66666667 -0.16666667  0.33333333
  reading force constants from file aluminium.bcc.dyn34
  nqs=           24
 q=  -0.25000000  0.25000000  0.16666667
 q=  -0.25000000  0.16666667  0.25000000
 q=  -0.16666667  0.25000000  0.25000000
 q=   0.25000000 -0.25000000  0.16666667
 q=  -0.25000000 -0.16666667 -0.25000000
 q=   0.25000000  0.16666667  0.25000000
 q=   0.16666667  0.25000000 -0.25000000
 q=  -0.25000000 -0.25000000  0.16666667
 q=  -0.16666667 -0.25000000 -0.25000000
 q=   0.25000000  0.25000000 -0.16666667
 q=  -0.25000000 -0.25000000 -0.16666667
 q=   0.16666667 -0.25000000  0.25000000
 q=   0.25000000  0.16666667 -0.25000000
 q=   0.25000000  0.25000000  0.16666667
 q=   0.25000000 -0.16666667  0.25000000
 q=  -0.25000000  0.25000000 -0.16666667
 q=  -0.25000000  0.16666667 -0.25000000
 q=  -0.25000000 -0.16666667  0.25000000
 q=   0.25000000 -0.16666667 -0.25000000
 q=   0.25000000 -0.25000000 -0.16666667
 q=   0.16666667 -0.25000000 -0.25000000
 q=  -0.16666667 -0.25000000  0.25000000
 q=   0.16666667  0.25000000  0.25000000
 q=  -0.16666667  0.25000000 -0.25000000
  reading force constants from file aluminium.bcc.dyn35
  nqs=           24
 q=  -0.25000000  0.75000000 -0.33333333
 q=  -0.25000000 -0.33333333  0.75000000
 q=  -0.75000000 -0.33333333  0.25000000
 q=   0.33333333  0.25000000  0.75000000
 q=   0.33333333  0.75000000  0.25000000
 q=   0.25000000 -0.75000000 -0.33333333
 q=  -0.75000000  0.33333333 -0.25000000
 q=   0.25000000 -0.33333333  0.75000000
 q=  -0.33333333  0.25000000 -0.75000000
 q=  -0.25000000 -0.75000000 -0.33333333
 q=   0.25000000  0.75000000  0.33333333
 q=  -0.25000000  0.33333333 -0.75000000
 q=   0.75000000  0.25000000  0.33333333
 q=  -0.75000000 -0.25000000 -0.33333333
 q=  -0.75000000  0.25000000  0.33333333
 q=  -0.25000000  0.75000000  0.33333333
 q=  -0.33333333 -0.25000000  0.75000000
 q=  -0.25000000 -0.33333333 -0.75000000
 q=  -0.25000000  0.33333333  0.75000000
 q=   0.25000000  0.33333333 -0.75000000
 q=  -0.33333333 -0.75000000 -0.25000000
 q=   0.33333333 -0.75000000  0.25000000
 q=  -0.33333333  0.75000000  0.25000000
 q=   0.33333333  0.75000000 -0.25000000
  reading force constants from file aluminium.bcc.dyn36
  nqs=           24
 q=  -0.33333333  0.33333333  0.16666667
 q=  -0.33333333  0.16666667  0.33333333
 q=  -0.16666667  0.33333333  0.33333333
 q=   0.33333333 -0.33333333  0.16666667
 q=  -0.33333333 -0.16666667 -0.33333333
 q=   0.33333333  0.16666667  0.33333333
 q=   0.16666667  0.33333333 -0.33333333
 q=  -0.33333333 -0.33333333  0.16666667
 q=  -0.16666667 -0.33333333 -0.33333333
 q=   0.33333333  0.33333333 -0.16666667
 q=  -0.33333333 -0.33333333 -0.16666667
 q=   0.16666667 -0.33333333  0.33333333
 q=   0.33333333  0.16666667 -0.33333333
 q=   0.33333333  0.33333333  0.16666667
 q=   0.33333333 -0.16666667  0.33333333
 q=  -0.33333333  0.33333333 -0.16666667
 q=  -0.33333333  0.16666667 -0.33333333
 q=  -0.33333333 -0.16666667  0.33333333
 q=   0.33333333 -0.16666667 -0.33333333
 q=   0.33333333 -0.33333333 -0.16666667
 q=   0.16666667 -0.33333333 -0.33333333
 q=  -0.16666667 -0.33333333  0.33333333
 q=   0.16666667  0.33333333  0.33333333
 q=  -0.16666667  0.33333333 -0.33333333
  reading force constants from file aluminium.bcc.dyn37
  nqs=           24
 q=  -0.33333333  0.25000000  0.25000000
 q=  -0.25000000  0.33333333  0.25000000
 q=  -0.25000000  0.25000000  0.33333333
 q=   0.33333333 -0.25000000  0.25000000
 q=   0.25000000 -0.33333333  0.25000000
 q=  -0.25000000 -0.25000000 -0.33333333
 q=   0.33333333  0.25000000  0.25000000
 q=   0.25000000  0.33333333 -0.25000000
 q=  -0.33333333 -0.25000000  0.25000000
 q=  -0.25000000 -0.33333333 -0.25000000
 q=   0.33333333  0.25000000 -0.25000000
 q=  -0.33333333 -0.25000000 -0.25000000
 q=  -0.25000000 -0.33333333  0.25000000
 q=   0.25000000 -0.25000000  0.33333333
 q=   0.25000000  0.25000000 -0.33333333
 q=   0.25000000  0.33333333  0.25000000
 q=  -0.25000000  0.33333333 -0.25000000
 q=  -0.33333333  0.25000000 -0.25000000
 q=   0.33333333 -0.25000000 -0.25000000
 q=   0.25000000 -0.25000000 -0.33333333
 q=  -0.25000000 -0.25000000  0.33333333
 q=   0.25000000  0.25000000  0.33333333
 q=  -0.25000000  0.25000000 -0.33333333
 q=   0.25000000 -0.33333333 -0.25000000
  reading force constants from file aluminium.bcc.dyn38
  nqs=           24
 q=   0.58333333 -0.58333333  0.16666667
 q=   0.58333333  0.16666667 -0.58333333
 q=  -0.16666667 -0.58333333 -0.58333333
 q=  -0.58333333  0.58333333  0.16666667
 q=   0.58333333 -0.16666667  0.58333333
 q=  -0.58333333  0.16666667 -0.58333333
 q=   0.16666667 -0.58333333  0.58333333
 q=   0.58333333  0.58333333  0.16666667
 q=  -0.16666667  0.58333333  0.58333333
 q=  -0.58333333 -0.58333333 -0.16666667
 q=   0.58333333  0.58333333 -0.16666667
 q=   0.16666667  0.58333333 -0.58333333
 q=  -0.58333333  0.16666667  0.58333333
 q=  -0.58333333 -0.58333333  0.16666667
 q=  -0.58333333 -0.16666667 -0.58333333
 q=   0.58333333 -0.58333333 -0.16666667
 q=   0.58333333  0.16666667  0.58333333
 q=   0.58333333 -0.16666667 -0.58333333
 q=  -0.58333333 -0.16666667  0.58333333
 q=  -0.58333333  0.58333333 -0.16666667
 q=   0.16666667  0.58333333  0.58333333
 q=  -0.16666667  0.58333333 -0.58333333
 q=   0.16666667 -0.58333333 -0.58333333
 q=  -0.16666667 -0.58333333  0.58333333
  reading force constants from file aluminium.bcc.dyn39
  nqs=           48
 q=   0.58333333 -0.66666667  0.25000000
 q=   0.66666667 -0.58333333  0.25000000
 q=   0.58333333  0.25000000 -0.66666667
 q=   0.66666667  0.25000000 -0.58333333
 q=  -0.25000000 -0.58333333 -0.66666667
 q=  -0.25000000 -0.66666667 -0.58333333
 q=  -0.58333333  0.66666667  0.25000000
 q=  -0.66666667  0.58333333  0.25000000
 q=   0.66666667 -0.25000000  0.58333333
 q=  -0.58333333  0.25000000 -0.66666667
 q=   0.25000000 -0.58333333  0.66666667
 q=   0.58333333  0.66666667  0.25000000
 q=  -0.25000000  0.58333333  0.66666667
 q=  -0.58333333 -0.66666667 -0.25000000
 q=   0.58333333 -0.25000000  0.66666667
 q=   0.66666667  0.58333333 -0.25000000
 q=  -0.66666667 -0.58333333 -0.25000000
 q=   0.66666667  0.58333333  0.25000000
 q=  -0.25000000  0.66666667  0.58333333
 q=   0.25000000  0.66666667 -0.58333333
 q=  -0.66666667  0.25000000  0.58333333
 q=  -0.66666667 -0.58333333  0.25000000
 q=  -0.58333333 -0.25000000 -0.66666667
 q=  -0.58333333  0.25000000  0.66666667
 q=   0.66666667 -0.58333333 -0.25000000
 q=   0.58333333 -0.66666667 -0.25000000
 q=   0.58333333  0.66666667 -0.25000000
 q=   0.25000000  0.58333333 -0.66666667
 q=   0.58333333  0.25000000  0.66666667
 q=   0.25000000 -0.66666667  0.58333333
 q=   0.58333333 -0.25000000 -0.66666667
 q=  -0.58333333 -0.25000000  0.66666667
 q=  -0.58333333 -0.66666667  0.25000000
 q=  -0.58333333  0.66666667 -0.25000000
 q=  -0.66666667 -0.25000000 -0.58333333
 q=   0.25000000  0.66666667  0.58333333
 q=  -0.25000000  0.66666667 -0.58333333
 q=   0.25000000 -0.66666667 -0.58333333
 q=  -0.25000000 -0.66666667  0.58333333
 q=  -0.66666667  0.58333333 -0.25000000
 q=   0.66666667 -0.25000000 -0.58333333
 q=  -0.66666667 -0.25000000  0.58333333
 q=   0.66666667  0.25000000  0.58333333
 q=  -0.66666667  0.25000000 -0.58333333
 q=  -0.25000000 -0.58333333  0.66666667
 q=  -0.25000000  0.58333333 -0.66666667
 q=   0.25000000  0.58333333  0.66666667
 q=   0.25000000 -0.58333333 -0.66666667
  reading force constants from file aluminium.bcc.dyn40
  nqs=           12
 q=   0.50000000 -0.50000000  0.16666667
 q=  -0.16666667 -0.50000000 -0.50000000
 q=   0.50000000  0.16666667 -0.50000000
 q=   0.50000000 -0.16666667  0.50000000
 q=  -0.50000000  0.16666667 -0.50000000
 q=   0.16666667 -0.50000000  0.50000000
 q=   0.50000000  0.50000000  0.16666667
 q=  -0.50000000 -0.50000000 -0.16666667
 q=   0.50000000 -0.50000000 -0.16666667
 q=   0.50000000 -0.16666667 -0.50000000
 q=   0.16666667  0.50000000  0.50000000
 q=  -0.16666667  0.50000000 -0.50000000
  reading force constants from file aluminium.bcc.dyn41
  nqs=           48
 q=   0.50000000 -0.58333333  0.25000000
 q=   0.58333333 -0.50000000  0.25000000
 q=  -0.50000000  0.58333333  0.25000000
 q=  -0.58333333  0.50000000  0.25000000
 q=  -0.25000000 -0.50000000 -0.58333333
 q=  -0.25000000 -0.58333333 -0.50000000
 q=   0.50000000  0.25000000 -0.58333333
 q=   0.58333333  0.25000000 -0.50000000
 q=   0.58333333 -0.25000000  0.50000000
 q=  -0.50000000  0.25000000 -0.58333333
 q=   0.25000000 -0.50000000  0.58333333
 q=   0.50000000  0.58333333  0.25000000
 q=  -0.25000000  0.50000000  0.58333333
 q=  -0.50000000 -0.58333333 -0.25000000
 q=   0.50000000 -0.25000000  0.58333333
 q=   0.58333333  0.50000000 -0.25000000
 q=  -0.58333333 -0.50000000 -0.25000000
 q=   0.58333333  0.50000000  0.25000000
 q=  -0.25000000  0.58333333  0.50000000
 q=   0.25000000  0.58333333 -0.50000000
 q=  -0.58333333  0.25000000  0.50000000
 q=  -0.58333333 -0.50000000  0.25000000
 q=  -0.50000000 -0.25000000 -0.58333333
 q=  -0.50000000  0.25000000  0.58333333
 q=   0.58333333 -0.50000000 -0.25000000
 q=   0.50000000 -0.58333333 -0.25000000
 q=   0.50000000  0.58333333 -0.25000000
 q=   0.25000000  0.50000000 -0.58333333
 q=   0.50000000  0.25000000  0.58333333
 q=   0.25000000 -0.58333333  0.50000000
 q=   0.50000000 -0.25000000 -0.58333333
 q=  -0.50000000 -0.25000000  0.58333333
 q=  -0.50000000 -0.58333333  0.25000000
 q=  -0.50000000  0.58333333 -0.25000000
 q=  -0.58333333 -0.25000000 -0.50000000
 q=   0.25000000  0.58333333  0.50000000
 q=  -0.25000000  0.58333333 -0.50000000
 q=   0.25000000 -0.58333333 -0.50000000
 q=  -0.25000000 -0.58333333  0.50000000
 q=  -0.58333333  0.50000000 -0.25000000
 q=   0.58333333 -0.25000000 -0.50000000
 q=  -0.58333333 -0.25000000  0.50000000
 q=   0.58333333  0.25000000  0.50000000
 q=  -0.58333333  0.25000000 -0.50000000
 q=  -0.25000000 -0.50000000  0.58333333
 q=  -0.25000000  0.50000000 -0.58333333
 q=   0.25000000  0.50000000  0.58333333
 q=   0.25000000 -0.50000000 -0.58333333
  reading force constants from file aluminium.bcc.dyn42
  nqs=           24
 q=   0.50000000 -0.66666667  0.33333333
 q=  -0.50000000  0.66666667  0.33333333
 q=  -0.66666667  0.50000000  0.33333333
 q=  -0.33333333 -0.50000000 -0.66666667
 q=  -0.33333333 -0.66666667 -0.50000000
 q=   0.66666667 -0.33333333  0.50000000
 q=  -0.50000000  0.33333333 -0.66666667
 q=   0.33333333 -0.50000000  0.66666667
 q=   0.50000000  0.66666667  0.33333333
 q=  -0.33333333  0.50000000  0.66666667
 q=  -0.50000000 -0.66666667 -0.33333333
 q=   0.50000000 -0.33333333  0.66666667
 q=   0.66666667  0.50000000  0.33333333
 q=   0.33333333  0.66666667 -0.50000000
 q=  -0.66666667  0.33333333  0.50000000
 q=  -0.66666667 -0.50000000  0.33333333
 q=   0.66666667 -0.50000000 -0.33333333
 q=   0.50000000 -0.66666667 -0.33333333
 q=  -0.50000000 -0.33333333  0.66666667
 q=   0.33333333  0.66666667  0.50000000
 q=  -0.33333333  0.66666667 -0.50000000
 q=   0.33333333 -0.66666667 -0.50000000
 q=  -0.33333333 -0.66666667  0.50000000
 q=  -0.66666667  0.50000000 -0.33333333
  reading force constants from file aluminium.bcc.dyn43
  nqs=           24
 q=   0.41666667 -0.58333333  0.33333333
 q=  -0.41666667  0.58333333  0.33333333
 q=   0.41666667  0.33333333 -0.58333333
 q=  -0.33333333 -0.41666667 -0.58333333
 q=  -0.33333333 -0.58333333 -0.41666667
 q=   0.58333333  0.33333333 -0.41666667
 q=   0.58333333 -0.33333333  0.41666667
 q=  -0.41666667  0.33333333 -0.58333333
 q=   0.33333333 -0.41666667  0.58333333
 q=   0.41666667  0.58333333  0.33333333
 q=  -0.41666667 -0.58333333 -0.33333333
 q=   0.41666667 -0.33333333  0.58333333
 q=  -0.58333333 -0.41666667 -0.33333333
 q=   0.58333333  0.41666667  0.33333333
 q=   0.58333333 -0.41666667 -0.33333333
 q=   0.41666667 -0.58333333 -0.33333333
 q=   0.33333333  0.41666667 -0.58333333
 q=   0.41666667  0.33333333  0.58333333
 q=   0.41666667 -0.33333333 -0.58333333
 q=  -0.41666667 -0.33333333  0.58333333
 q=   0.33333333  0.58333333  0.41666667
 q=  -0.33333333  0.58333333 -0.41666667
 q=   0.33333333 -0.58333333 -0.41666667
 q=  -0.33333333 -0.58333333  0.41666667
  reading force constants from file aluminium.bcc.dyn44
  nqs=            6
 q=   0.00000000  0.00000000  0.33333333
 q=   0.00000000 -0.33333333  0.00000000
 q=   0.00000000  0.33333333  0.00000000
 q=   0.33333333  0.00000000  0.00000000
 q=  -0.33333333  0.00000000  0.00000000
 q=   0.00000000  0.00000000 -0.33333333
  reading force constants from file aluminium.bcc.dyn45
  nqs=           24
 q=   0.00000000 -0.08333333  0.41666667
 q=   0.00000000  0.08333333  0.41666667
 q=   0.08333333  0.00000000  0.41666667
 q=  -0.08333333  0.00000000  0.41666667
 q=   0.08333333 -0.41666667  0.00000000
 q=   0.00000000  0.41666667 -0.08333333
 q=   0.41666667  0.00000000  0.08333333
 q=  -0.41666667  0.00000000 -0.08333333
 q=  -0.41666667  0.00000000  0.08333333
 q=   0.00000000 -0.08333333 -0.41666667
 q=   0.00000000 -0.41666667  0.08333333
 q=   0.08333333  0.00000000 -0.41666667
 q=  -0.08333333  0.00000000 -0.41666667
 q=  -0.41666667 -0.08333333  0.00000000
 q=  -0.41666667  0.08333333  0.00000000
 q=   0.41666667  0.08333333  0.00000000
 q=  -0.08333333  0.41666667  0.00000000
 q=   0.00000000 -0.41666667 -0.08333333
 q=   0.00000000  0.41666667  0.08333333
 q=   0.00000000  0.08333333 -0.41666667
 q=   0.41666667  0.00000000 -0.08333333
 q=   0.41666667 -0.08333333  0.00000000
 q=   0.08333333  0.41666667  0.00000000
 q=  -0.08333333 -0.41666667  0.00000000
  reading force constants from file aluminium.bcc.dyn46
  nqs=           24
 q=   0.00000000 -0.16666667  0.50000000
 q=   0.00000000  0.16666667  0.50000000
 q=   0.16666667  0.00000000  0.50000000
 q=  -0.16666667  0.00000000  0.50000000
 q=   0.16666667 -0.50000000  0.00000000
 q=   0.00000000  0.50000000 -0.16666667
 q=   0.50000000  0.00000000  0.16666667
 q=  -0.50000000  0.00000000 -0.16666667
 q=  -0.50000000  0.00000000  0.16666667
 q=   0.00000000 -0.16666667 -0.50000000
 q=   0.00000000 -0.50000000  0.16666667
 q=   0.16666667  0.00000000 -0.50000000
 q=  -0.16666667  0.00000000 -0.50000000
 q=  -0.50000000 -0.16666667  0.00000000
 q=  -0.50000000  0.16666667  0.00000000
 q=   0.50000000  0.16666667  0.00000000
 q=  -0.16666667  0.50000000  0.00000000
 q=   0.00000000 -0.50000000 -0.16666667
 q=   0.00000000  0.50000000  0.16666667
 q=   0.00000000  0.16666667 -0.50000000
 q=   0.50000000  0.00000000 -0.16666667
 q=   0.50000000 -0.16666667  0.00000000
 q=   0.16666667  0.50000000  0.00000000
 q=  -0.16666667 -0.50000000  0.00000000
  reading force constants from file aluminium.bcc.dyn47
  nqs=           24
 q=   0.00000000 -0.25000000  0.58333333
 q=   0.00000000  0.25000000  0.58333333
 q=   0.25000000  0.00000000  0.58333333
 q=  -0.25000000  0.00000000  0.58333333
 q=   0.25000000 -0.58333333  0.00000000
 q=   0.00000000  0.58333333 -0.25000000
 q=   0.58333333  0.00000000  0.25000000
 q=  -0.58333333  0.00000000 -0.25000000
 q=  -0.58333333  0.00000000  0.25000000
 q=   0.00000000 -0.25000000 -0.58333333
 q=   0.00000000 -0.58333333  0.25000000
 q=   0.25000000  0.00000000 -0.58333333
 q=  -0.25000000  0.00000000 -0.58333333
 q=  -0.58333333 -0.25000000  0.00000000
 q=  -0.58333333  0.25000000  0.00000000
 q=   0.58333333  0.25000000  0.00000000
 q=  -0.25000000  0.58333333  0.00000000
 q=   0.00000000 -0.58333333 -0.25000000
 q=   0.00000000  0.58333333  0.25000000
 q=   0.00000000  0.25000000 -0.58333333
 q=   0.58333333  0.00000000 -0.25000000
 q=   0.58333333 -0.25000000  0.00000000
 q=   0.25000000  0.58333333  0.00000000
 q=  -0.25000000 -0.58333333  0.00000000
  reading force constants from file aluminium.bcc.dyn48
  nqs=           12
 q=   0.00000000  0.66666667 -0.33333333
 q=   0.00000000 -0.66666667 -0.33333333
 q=  -0.66666667  0.00000000 -0.33333333
 q=   0.66666667  0.00000000 -0.33333333
 q=  -0.66666667  0.33333333  0.00000000
 q=  -0.33333333  0.00000000 -0.66666667
 q=   0.33333333  0.00000000 -0.66666667
 q=   0.00000000  0.66666667  0.33333333
 q=   0.00000000  0.33333333 -0.66666667
 q=   0.33333333  0.66666667  0.00000000
 q=  -0.33333333 -0.66666667  0.00000000
 q=   0.66666667 -0.33333333  0.00000000
  reading force constants from file aluminium.bcc.dyn49
  nqs=           24
 q=  -0.08333333 -0.08333333  0.50000000
 q=   0.08333333  0.50000000 -0.08333333
 q=  -0.08333333  0.50000000 -0.08333333
 q=  -0.08333333  0.08333333  0.50000000
 q=   0.08333333 -0.08333333  0.50000000
 q=   0.08333333 -0.50000000 -0.08333333
 q=   0.08333333  0.08333333  0.50000000
 q=   0.50000000  0.08333333  0.08333333
 q=  -0.50000000  0.08333333 -0.08333333
 q=  -0.50000000 -0.08333333  0.08333333
 q=   0.08333333 -0.08333333 -0.50000000
 q=  -0.08333333 -0.50000000  0.08333333
 q=  -0.08333333  0.08333333 -0.50000000
 q=   0.08333333  0.50000000  0.08333333
 q=   0.08333333  0.08333333 -0.50000000
 q=  -0.08333333 -0.08333333 -0.50000000
 q=   0.50000000 -0.08333333 -0.08333333
 q=  -0.08333333  0.50000000  0.08333333
 q=  -0.08333333 -0.50000000 -0.08333333
 q=   0.08333333 -0.50000000  0.08333333
 q=   0.50000000  0.08333333 -0.08333333
 q=  -0.50000000  0.08333333  0.08333333
 q=   0.50000000 -0.08333333  0.08333333
 q=  -0.50000000 -0.08333333 -0.08333333
  reading force constants from file aluminium.bcc.dyn50
  nqs=           48
 q=  -0.08333333 -0.16666667  0.58333333
 q=  -0.16666667 -0.08333333  0.58333333
 q=   0.08333333  0.58333333 -0.16666667
 q=  -0.08333333  0.58333333 -0.16666667
 q=  -0.08333333  0.16666667  0.58333333
 q=   0.16666667 -0.08333333  0.58333333
 q=  -0.16666667  0.08333333  0.58333333
 q=   0.08333333 -0.16666667  0.58333333
 q=   0.16666667 -0.58333333 -0.08333333
 q=   0.08333333  0.16666667  0.58333333
 q=   0.58333333  0.08333333  0.16666667
 q=  -0.58333333  0.08333333 -0.16666667
 q=  -0.58333333 -0.08333333  0.16666667
 q=   0.08333333 -0.16666667 -0.58333333
 q=  -0.08333333 -0.58333333  0.16666667
 q=   0.16666667 -0.08333333 -0.58333333
 q=  -0.16666667  0.08333333 -0.58333333
 q=  -0.58333333 -0.16666667  0.08333333
 q=  -0.58333333  0.16666667 -0.08333333
 q=   0.58333333  0.16666667  0.08333333
 q=  -0.16666667  0.58333333 -0.08333333
 q=   0.16666667  0.08333333  0.58333333
 q=   0.08333333 -0.58333333 -0.16666667
 q=   0.08333333  0.58333333  0.16666667
 q=   0.16666667  0.08333333 -0.58333333
 q=  -0.08333333 -0.16666667 -0.58333333
 q=  -0.08333333  0.16666667 -0.58333333
 q=   0.58333333 -0.08333333 -0.16666667
 q=  -0.08333333  0.58333333  0.16666667
 q=   0.58333333 -0.16666667 -0.08333333
 q=  -0.08333333 -0.58333333 -0.16666667
 q=   0.08333333 -0.58333333  0.16666667
 q=   0.16666667  0.58333333  0.08333333
 q=   0.08333333  0.16666667 -0.58333333
 q=  -0.16666667 -0.58333333  0.08333333
 q=   0.58333333  0.16666667 -0.08333333
 q=  -0.58333333  0.16666667  0.08333333
 q=   0.58333333 -0.16666667  0.08333333
 q=  -0.58333333 -0.16666667 -0.08333333
 q=  -0.16666667 -0.08333333 -0.58333333
 q=   0.16666667 -0.58333333  0.08333333
 q=  -0.16666667 -0.58333333 -0.08333333
 q=   0.16666667  0.58333333 -0.08333333
 q=  -0.16666667  0.58333333  0.08333333
 q=  -0.58333333  0.08333333  0.16666667
 q=  -0.58333333 -0.08333333 -0.16666667
 q=   0.58333333 -0.08333333  0.16666667
 q=   0.58333333  0.08333333 -0.16666667
  reading force constants from file aluminium.bcc.dyn51
  nqs=           48
 q=  -0.08333333  0.75000000 -0.33333333
 q=   0.75000000 -0.08333333 -0.33333333
 q=   0.08333333 -0.33333333  0.75000000
 q=  -0.08333333 -0.33333333  0.75000000
 q=  -0.08333333 -0.75000000 -0.33333333
 q=  -0.75000000 -0.08333333 -0.33333333
 q=   0.75000000  0.08333333 -0.33333333
 q=   0.08333333  0.75000000 -0.33333333
 q=  -0.75000000  0.33333333 -0.08333333
 q=   0.08333333 -0.75000000 -0.33333333
 q=  -0.33333333  0.08333333 -0.75000000
 q=   0.33333333  0.08333333  0.75000000
 q=   0.33333333 -0.08333333 -0.75000000
 q=   0.08333333  0.75000000  0.33333333
 q=  -0.08333333  0.33333333 -0.75000000
 q=  -0.75000000 -0.08333333  0.33333333
 q=   0.75000000  0.08333333  0.33333333
 q=   0.33333333  0.75000000  0.08333333
 q=   0.33333333 -0.75000000 -0.08333333
 q=  -0.33333333 -0.75000000  0.08333333
 q=   0.75000000 -0.33333333 -0.08333333
 q=  -0.75000000  0.08333333 -0.33333333
 q=   0.08333333  0.33333333  0.75000000
 q=   0.08333333 -0.33333333 -0.75000000
 q=  -0.75000000  0.08333333  0.33333333
 q=  -0.08333333  0.75000000  0.33333333
 q=  -0.08333333 -0.75000000  0.33333333
 q=  -0.33333333 -0.08333333  0.75000000
 q=  -0.08333333 -0.33333333 -0.75000000
 q=  -0.33333333  0.75000000 -0.08333333
 q=  -0.08333333  0.33333333  0.75000000
 q=   0.08333333  0.33333333 -0.75000000
 q=  -0.75000000 -0.33333333  0.08333333
 q=   0.08333333 -0.75000000  0.33333333
 q=   0.75000000  0.33333333  0.08333333
 q=  -0.33333333 -0.75000000 -0.08333333
 q=   0.33333333 -0.75000000  0.08333333
 q=  -0.33333333  0.75000000  0.08333333
 q=   0.33333333  0.75000000 -0.08333333
 q=   0.75000000 -0.08333333  0.33333333
 q=  -0.75000000  0.33333333  0.08333333
 q=   0.75000000  0.33333333 -0.08333333
 q=  -0.75000000 -0.33333333 -0.08333333
 q=   0.75000000 -0.33333333  0.08333333
 q=   0.33333333  0.08333333 -0.75000000
 q=   0.33333333 -0.08333333  0.75000000
 q=  -0.33333333 -0.08333333 -0.75000000
 q=  -0.33333333  0.08333333  0.75000000
  reading force constants from file aluminium.bcc.dyn52
  nqs=           24
 q=  -0.16666667  0.83333333 -0.33333333
 q=   0.16666667 -0.33333333  0.83333333
 q=  -0.16666667 -0.33333333  0.83333333
 q=  -0.16666667 -0.83333333 -0.33333333
 q=  -0.83333333 -0.16666667 -0.33333333
 q=  -0.83333333  0.33333333 -0.16666667
 q=   0.16666667 -0.83333333 -0.33333333
 q=  -0.33333333  0.16666667 -0.83333333
 q=   0.33333333  0.16666667  0.83333333
 q=   0.33333333 -0.16666667 -0.83333333
 q=   0.16666667  0.83333333  0.33333333
 q=  -0.16666667  0.33333333 -0.83333333
 q=   0.83333333  0.16666667  0.33333333
 q=   0.16666667 -0.33333333 -0.83333333
 q=  -0.83333333  0.16666667  0.33333333
 q=  -0.16666667  0.83333333  0.33333333
 q=  -0.33333333 -0.16666667  0.83333333
 q=  -0.16666667 -0.33333333 -0.83333333
 q=  -0.16666667  0.33333333  0.83333333
 q=   0.16666667  0.33333333 -0.83333333
 q=  -0.33333333 -0.83333333 -0.16666667
 q=   0.33333333 -0.83333333  0.16666667
 q=  -0.33333333  0.83333333  0.16666667
 q=   0.33333333  0.83333333 -0.16666667
  reading force constants from file aluminium.bcc.dyn53
  nqs=           24
 q=  -0.16666667  0.75000000 -0.25000000
 q=   0.16666667 -0.25000000  0.75000000
 q=   0.75000000 -0.16666667 -0.25000000
 q=  -0.16666667 -0.75000000 -0.25000000
 q=  -0.75000000 -0.16666667 -0.25000000
 q=   0.75000000  0.16666667 -0.25000000
 q=  -0.75000000  0.25000000 -0.16666667
 q=   0.16666667 -0.75000000 -0.25000000
 q=  -0.25000000  0.16666667 -0.75000000
 q=   0.25000000  0.16666667  0.75000000
 q=   0.25000000 -0.16666667 -0.75000000
 q=   0.16666667  0.75000000  0.25000000
 q=  -0.16666667  0.25000000 -0.75000000
 q=   0.25000000  0.75000000  0.16666667
 q=  -0.25000000 -0.75000000  0.16666667
 q=   0.75000000 -0.25000000 -0.16666667
 q=  -0.75000000  0.16666667  0.25000000
 q=  -0.16666667  0.75000000  0.25000000
 q=   0.16666667  0.25000000 -0.75000000
 q=  -0.25000000 -0.75000000 -0.16666667
 q=   0.25000000 -0.75000000  0.16666667
 q=  -0.25000000  0.75000000  0.16666667
 q=   0.25000000  0.75000000 -0.16666667
 q=   0.75000000 -0.16666667  0.25000000
  reading force constants from file aluminium.bcc.dyn54
  nqs=            8
 q=   0.66666667 -0.66666667  0.33333333
 q=  -0.66666667 -0.66666667  0.33333333
 q=   0.66666667 -0.33333333  0.66666667
 q=  -0.66666667  0.66666667  0.33333333
 q=   0.33333333 -0.66666667  0.66666667
 q=   0.66666667  0.66666667  0.33333333
 q=   0.66666667 -0.66666667 -0.33333333
 q=  -0.66666667 -0.33333333  0.66666667
  reading force constants from file aluminium.bcc.dyn55
  nqs=           24
 q=   0.58333333 -0.58333333  0.33333333
 q=  -0.33333333 -0.58333333 -0.58333333
 q=   0.58333333  0.33333333 -0.58333333
 q=  -0.58333333 -0.58333333  0.33333333
 q=   0.58333333 -0.33333333  0.58333333
 q=  -0.58333333  0.58333333  0.33333333
 q=   0.33333333 -0.58333333  0.58333333
 q=  -0.58333333  0.33333333 -0.58333333
 q=  -0.33333333  0.58333333  0.58333333
 q=  -0.58333333 -0.58333333 -0.33333333
 q=   0.58333333  0.58333333 -0.33333333
 q=   0.33333333  0.58333333 -0.58333333
 q=  -0.58333333  0.33333333  0.58333333
 q=   0.58333333  0.58333333  0.33333333
 q=  -0.58333333 -0.33333333 -0.58333333
 q=   0.58333333 -0.58333333 -0.33333333
 q=   0.58333333  0.33333333  0.58333333
 q=   0.58333333 -0.33333333 -0.58333333
 q=  -0.58333333 -0.33333333  0.58333333
 q=  -0.58333333  0.58333333 -0.33333333
 q=   0.33333333  0.58333333  0.58333333
 q=  -0.33333333  0.58333333 -0.58333333
 q=   0.33333333 -0.58333333 -0.58333333
 q=  -0.33333333 -0.58333333  0.58333333
  reading force constants from file aluminium.bcc.dyn56
  nqs=           12
 q=   0.50000000 -0.50000000  0.33333333
 q=   0.50000000  0.33333333 -0.50000000
 q=  -0.50000000 -0.50000000  0.33333333
 q=   0.50000000 -0.33333333  0.50000000
 q=  -0.33333333 -0.50000000 -0.50000000
 q=   0.33333333 -0.50000000  0.50000000
 q=  -0.50000000  0.33333333 -0.50000000
 q=  -0.50000000 -0.50000000 -0.33333333
 q=   0.50000000 -0.50000000 -0.33333333
 q=   0.50000000 -0.33333333 -0.50000000
 q=   0.33333333  0.50000000  0.50000000
 q=  -0.33333333  0.50000000 -0.50000000
  reading force constants from file aluminium.bcc.dyn57
  nqs=           24
 q=   0.50000000 -0.58333333  0.41666667
 q=  -0.50000000  0.58333333  0.41666667
 q=  -0.58333333  0.50000000  0.41666667
 q=   0.58333333 -0.50000000  0.41666667
 q=   0.58333333  0.41666667 -0.50000000
 q=  -0.58333333 -0.50000000  0.41666667
 q=  -0.50000000 -0.58333333  0.41666667
 q=   0.58333333 -0.41666667  0.50000000
 q=   0.41666667 -0.50000000  0.58333333
 q=  -0.41666667  0.50000000  0.58333333
 q=  -0.50000000 -0.58333333 -0.41666667
 q=   0.50000000 -0.41666667  0.58333333
 q=   0.41666667  0.58333333 -0.50000000
 q=  -0.58333333  0.41666667  0.50000000
 q=   0.50000000  0.58333333  0.41666667
 q=   0.58333333 -0.50000000 -0.41666667
 q=   0.50000000 -0.58333333 -0.41666667
 q=  -0.50000000 -0.41666667  0.58333333
 q=   0.58333333  0.50000000  0.41666667
 q=   0.41666667  0.58333333  0.50000000
 q=  -0.41666667  0.58333333 -0.50000000
 q=   0.41666667 -0.58333333 -0.50000000
 q=  -0.41666667 -0.58333333  0.50000000
 q=  -0.58333333  0.50000000 -0.41666667
  reading force constants from file aluminium.bcc.dyn58
  nqs=            6
 q=   0.00000000  0.00000000  0.50000000
 q=   0.00000000 -0.50000000  0.00000000
 q=  -0.50000000  0.00000000  0.00000000
 q=   0.50000000  0.00000000  0.00000000
 q=   0.00000000  0.50000000  0.00000000
 q=   0.00000000  0.00000000 -0.50000000
  reading force constants from file aluminium.bcc.dyn59
  nqs=           24
 q=   0.00000000 -0.08333333  0.58333333
 q=  -0.08333333  0.00000000  0.58333333
 q=   0.08333333  0.00000000  0.58333333
 q=   0.00000000  0.08333333  0.58333333
 q=   0.08333333 -0.58333333  0.00000000
 q=  -0.58333333  0.00000000 -0.08333333
 q=   0.58333333  0.00000000  0.08333333
 q=   0.00000000  0.58333333 -0.08333333
 q=  -0.58333333  0.00000000  0.08333333
 q=   0.00000000 -0.08333333 -0.58333333
 q=   0.00000000 -0.58333333  0.08333333
 q=   0.08333333  0.00000000 -0.58333333
 q=  -0.08333333  0.00000000 -0.58333333
 q=  -0.58333333 -0.08333333  0.00000000
 q=  -0.58333333  0.08333333  0.00000000
 q=   0.58333333  0.08333333  0.00000000
 q=  -0.08333333  0.58333333  0.00000000
 q=   0.00000000 -0.58333333 -0.08333333
 q=   0.00000000  0.58333333  0.08333333
 q=   0.00000000  0.08333333 -0.58333333
 q=   0.58333333  0.00000000 -0.08333333
 q=   0.58333333 -0.08333333  0.00000000
 q=   0.08333333  0.58333333  0.00000000
 q=  -0.08333333 -0.58333333  0.00000000
  reading force constants from file aluminium.bcc.dyn60
  nqs=           24
 q=   0.00000000 -0.16666667  0.66666667
 q=  -0.16666667  0.00000000  0.66666667
 q=   0.16666667  0.00000000  0.66666667
 q=   0.00000000  0.16666667  0.66666667
 q=   0.16666667 -0.66666667  0.00000000
 q=  -0.66666667  0.00000000 -0.16666667
 q=   0.66666667  0.00000000  0.16666667
 q=   0.00000000  0.66666667 -0.16666667
 q=  -0.66666667  0.00000000  0.16666667
 q=   0.00000000 -0.16666667 -0.66666667
 q=   0.00000000 -0.66666667  0.16666667
 q=   0.16666667  0.00000000 -0.66666667
 q=  -0.16666667  0.00000000 -0.66666667
 q=  -0.66666667 -0.16666667  0.00000000
 q=  -0.66666667  0.16666667  0.00000000
 q=   0.66666667  0.16666667  0.00000000
 q=  -0.16666667  0.66666667  0.00000000
 q=   0.00000000 -0.66666667 -0.16666667
 q=   0.00000000  0.66666667  0.16666667
 q=   0.00000000  0.16666667 -0.66666667
 q=   0.66666667  0.00000000 -0.16666667
 q=   0.66666667 -0.16666667  0.00000000
 q=   0.16666667  0.66666667  0.00000000
 q=  -0.16666667 -0.66666667  0.00000000
  reading force constants from file aluminium.bcc.dyn61
  nqs=           12
 q=   0.00000000  0.75000000 -0.25000000
 q=   0.75000000  0.00000000 -0.25000000
 q=   0.00000000 -0.75000000 -0.25000000
 q=  -0.75000000  0.00000000 -0.25000000
 q=  -0.75000000  0.25000000  0.00000000
 q=  -0.25000000  0.00000000 -0.75000000
 q=   0.25000000  0.00000000 -0.75000000
 q=   0.00000000  0.75000000  0.25000000
 q=   0.00000000  0.25000000 -0.75000000
 q=   0.25000000  0.75000000  0.00000000
 q=  -0.25000000 -0.75000000  0.00000000
 q=   0.75000000 -0.25000000  0.00000000
  reading force constants from file aluminium.bcc.dyn62
  nqs=           24
 q=  -0.08333333 -0.08333333  0.66666667
 q=   0.08333333  0.66666667 -0.08333333
 q=  -0.08333333  0.66666667 -0.08333333
 q=  -0.08333333  0.08333333  0.66666667
 q=   0.08333333  0.08333333  0.66666667
 q=   0.08333333 -0.08333333  0.66666667
 q=   0.08333333 -0.66666667 -0.08333333
 q=  -0.66666667  0.08333333 -0.08333333
 q=   0.66666667  0.08333333  0.08333333
 q=  -0.66666667 -0.08333333  0.08333333
 q=   0.08333333 -0.08333333 -0.66666667
 q=  -0.08333333 -0.66666667  0.08333333
 q=  -0.08333333  0.08333333 -0.66666667
 q=   0.08333333  0.66666667  0.08333333
 q=   0.08333333  0.08333333 -0.66666667
 q=  -0.08333333 -0.08333333 -0.66666667
 q=   0.66666667 -0.08333333 -0.08333333
 q=  -0.08333333  0.66666667  0.08333333
 q=  -0.08333333 -0.66666667 -0.08333333
 q=   0.08333333 -0.66666667  0.08333333
 q=   0.66666667  0.08333333 -0.08333333
 q=  -0.66666667  0.08333333  0.08333333
 q=   0.66666667 -0.08333333  0.08333333
 q=  -0.66666667 -0.08333333 -0.08333333
  reading force constants from file aluminium.bcc.dyn63
  nqs=           48
 q=  -0.08333333  0.83333333 -0.25000000
 q=   0.83333333 -0.08333333 -0.25000000
 q=   0.08333333 -0.25000000  0.83333333
 q=  -0.08333333 -0.25000000  0.83333333
 q=   0.83333333  0.08333333 -0.25000000
 q=   0.08333333 -0.83333333 -0.25000000
 q=  -0.08333333 -0.83333333 -0.25000000
 q=  -0.83333333 -0.08333333 -0.25000000
 q=  -0.83333333  0.25000000 -0.08333333
 q=   0.25000000  0.08333333  0.83333333
 q=  -0.25000000  0.08333333 -0.83333333
 q=   0.08333333  0.83333333 -0.25000000
 q=   0.25000000 -0.08333333 -0.83333333
 q=   0.08333333  0.83333333  0.25000000
 q=  -0.08333333  0.25000000 -0.83333333
 q=  -0.83333333 -0.08333333  0.25000000
 q=   0.83333333  0.08333333  0.25000000
 q=   0.25000000  0.83333333  0.08333333
 q=   0.25000000 -0.83333333 -0.08333333
 q=  -0.25000000 -0.83333333  0.08333333
 q=   0.83333333 -0.25000000 -0.08333333
 q=  -0.83333333  0.08333333 -0.25000000
 q=   0.08333333  0.25000000  0.83333333
 q=   0.08333333 -0.25000000 -0.83333333
 q=  -0.83333333  0.08333333  0.25000000
 q=  -0.08333333  0.83333333  0.25000000
 q=  -0.08333333 -0.83333333  0.25000000
 q=  -0.25000000 -0.08333333  0.83333333
 q=  -0.08333333 -0.25000000 -0.83333333
 q=  -0.25000000  0.83333333 -0.08333333
 q=  -0.08333333  0.25000000  0.83333333
 q=   0.08333333  0.25000000 -0.83333333
 q=  -0.83333333 -0.25000000  0.08333333
 q=   0.08333333 -0.83333333  0.25000000
 q=   0.83333333  0.25000000  0.08333333
 q=  -0.25000000 -0.83333333 -0.08333333
 q=   0.25000000 -0.83333333  0.08333333
 q=  -0.25000000  0.83333333  0.08333333
 q=   0.25000000  0.83333333 -0.08333333
 q=   0.83333333 -0.08333333  0.25000000
 q=  -0.83333333  0.25000000  0.08333333
 q=   0.83333333  0.25000000 -0.08333333
 q=  -0.83333333 -0.25000000 -0.08333333
 q=   0.83333333 -0.25000000  0.08333333
 q=   0.25000000  0.08333333 -0.83333333
 q=   0.25000000 -0.08333333  0.83333333
 q=  -0.25000000 -0.08333333 -0.83333333
 q=  -0.25000000  0.08333333  0.83333333
  reading force constants from file aluminium.bcc.dyn64
  nqs=            8
 q=  -0.16666667  0.83333333 -0.16666667
 q=  -0.16666667 -0.83333333 -0.16666667
 q=  -0.83333333 -0.16666667 -0.16666667
 q=  -0.83333333  0.16666667 -0.16666667
 q=  -0.16666667  0.16666667 -0.83333333
 q=   0.16666667 -0.16666667 -0.83333333
 q=  -0.83333333  0.16666667  0.16666667
 q=  -0.16666667  0.83333333  0.16666667
  reading force constants from file aluminium.bcc.dyn65
  nqs=            2
 q=   0.50000000 -0.50000000  0.50000000
 q=   0.50000000 -0.50000000 -0.50000000
  reading force constants from file aluminium.bcc.dyn66
  nqs=            6
 q=   0.00000000  0.00000000  0.66666667
 q=   0.66666667  0.00000000  0.00000000
 q=  -0.66666667  0.00000000  0.00000000
 q=   0.00000000  0.00000000 -0.66666667
 q=   0.00000000 -0.66666667  0.00000000
 q=   0.00000000  0.66666667  0.00000000
  reading force constants from file aluminium.bcc.dyn67
  nqs=           24
 q=   0.00000000 -0.08333333  0.75000000
 q=   0.08333333  0.00000000  0.75000000
 q=   0.00000000  0.08333333  0.75000000
 q=  -0.08333333  0.00000000  0.75000000
 q=   0.75000000  0.00000000  0.08333333
 q=  -0.75000000  0.00000000  0.08333333
 q=   0.00000000 -0.08333333 -0.75000000
 q=   0.00000000 -0.75000000  0.08333333
 q=   0.08333333  0.00000000 -0.75000000
 q=  -0.08333333  0.00000000 -0.75000000
 q=  -0.75000000 -0.08333333  0.00000000
 q=  -0.75000000  0.08333333  0.00000000
 q=   0.75000000  0.08333333  0.00000000
 q=   0.00000000  0.75000000 -0.08333333
 q=   0.00000000 -0.75000000 -0.08333333
 q=   0.00000000  0.75000000  0.08333333
 q=   0.00000000  0.08333333 -0.75000000
 q=  -0.08333333  0.75000000  0.00000000
 q=   0.08333333  0.75000000  0.00000000
 q=  -0.08333333 -0.75000000  0.00000000
 q=   0.75000000  0.00000000 -0.08333333
 q=   0.75000000 -0.08333333  0.00000000
 q=   0.08333333 -0.75000000  0.00000000
 q=  -0.75000000  0.00000000 -0.08333333
  reading force constants from file aluminium.bcc.dyn68
  nqs=           12
 q=   0.00000000  0.83333333 -0.16666667
 q=   0.83333333  0.00000000 -0.16666667
 q=  -0.83333333  0.00000000 -0.16666667
 q=   0.00000000 -0.83333333 -0.16666667
 q=  -0.16666667  0.00000000 -0.83333333
 q=   0.16666667  0.00000000 -0.83333333
 q=   0.00000000  0.83333333  0.16666667
 q=   0.00000000  0.16666667 -0.83333333
 q=   0.16666667  0.83333333  0.00000000
 q=   0.16666667 -0.83333333  0.00000000
 q=  -0.16666667 -0.83333333  0.00000000
 q=   0.83333333 -0.16666667  0.00000000
  reading force constants from file aluminium.bcc.dyn69
  nqs=           24
 q=  -0.08333333  0.91666667 -0.16666667
 q=  -0.08333333 -0.16666667  0.91666667
 q=   0.08333333 -0.16666667  0.91666667
 q=   0.91666667  0.08333333 -0.16666667
 q=   0.08333333  0.91666667 -0.16666667
 q=  -0.16666667  0.08333333 -0.91666667
 q=   0.16666667 -0.08333333 -0.91666667
 q=   0.08333333  0.91666667  0.16666667
 q=  -0.08333333  0.16666667 -0.91666667
 q=   0.91666667  0.08333333  0.16666667
 q=   0.16666667 -0.91666667 -0.08333333
 q=  -0.91666667  0.08333333 -0.16666667
 q=   0.08333333  0.16666667  0.91666667
 q=   0.08333333 -0.16666667 -0.91666667
 q=  -0.91666667  0.08333333  0.16666667
 q=  -0.08333333  0.91666667  0.16666667
 q=  -0.16666667 -0.08333333  0.91666667
 q=  -0.08333333 -0.16666667 -0.91666667
 q=  -0.08333333  0.16666667  0.91666667
 q=   0.08333333  0.16666667 -0.91666667
 q=  -0.16666667 -0.91666667 -0.08333333
 q=   0.16666667 -0.91666667  0.08333333
 q=  -0.16666667  0.91666667  0.08333333
 q=   0.16666667  0.91666667 -0.08333333
  reading force constants from file aluminium.bcc.dyn70
  nqs=            6
 q=   0.00000000  0.00000000  0.83333333
 q=   0.83333333  0.00000000  0.00000000
 q=  -0.83333333  0.00000000  0.00000000
 q=   0.00000000  0.00000000 -0.83333333
 q=   0.00000000 -0.83333333  0.00000000
 q=   0.00000000  0.83333333  0.00000000
  reading force constants from file aluminium.bcc.dyn71
  nqs=           12
 q=   0.00000000  0.91666667 -0.08333333
 q=  -0.91666667  0.00000000 -0.08333333
 q=   0.00000000 -0.91666667 -0.08333333
 q=  -0.08333333  0.00000000 -0.91666667
 q=   0.08333333  0.00000000 -0.91666667
 q=   0.00000000  0.91666667  0.08333333
 q=   0.00000000  0.08333333 -0.91666667
 q=   0.08333333  0.91666667  0.00000000
 q=   0.08333333 -0.91666667  0.00000000
 q=  -0.08333333 -0.91666667  0.00000000
 q=   0.91666667  0.00000000 -0.08333333
 q=   0.91666667 -0.08333333  0.00000000
  reading force constants from file aluminium.bcc.dyn72
  nqs=            1
 q=   0.00000000  0.00000000 -1.00000000

      q-space grid ok, #points = 1728

      fft-check success (sum of imaginary terms < 10^-12)

     Q2R          :     0.04s CPU         0.04s WALL


   This run was terminated on:  20: 4:15  31Oct2017            

=------------------------------------------------------------------------------=
   JOB DONE.
=------------------------------------------------------------------------------=
