
     Program PWSCF v.6.1 (svn rev. 13369) starts on 31Oct2017 at 14: 2:17 

     This program is part of the open-source Quantum ESPRESSO suite
     for quantum simulation of materials; please cite
         "P. Giannozzi et al., J. Phys.:Condens. Matter 21 395502 (2009);
          URL http://www.quantum-espresso.org", 
     in publications or presentations arising from this work. More details at
     http://www.quantum-espresso.org/quote

     Parallel version (MPI), running on     4 processors
     R & G space division:  proc/nbgrp/npool/nimage =       4
     Waiting for input...
     Reading input from standard input
     Message from routine read_cards :
     DEPRECATED: no units specified in ATOMIC_POSITIONS card
     Message from routine read_cards :
     ATOMIC_POSITIONS: units set to alat

     Current dimensions of program PWSCF are:
     Max number of different atomic species (ntypx) = 10
     Max number of k-points (npk) =  40000
     Max angular momentum in pseudopotentials (lmaxx) =  3
               file Al.pbe-n-kjpaw_psl.1.0.0.UPF: wavefunction(s)  3S 3P renormalized

     Subspace diagonalization in iterative solution of the eigenvalue problem:
     a serial algorithm will be used


     Parallelization info
     --------------------
     sticks:   dense  smooth     PW     G-vecs:    dense   smooth      PW
     Min          84      84     29                  981      981     191
     Max          85      85     30                  982      982     192
     Sum         337     337    117                 3925     3925     767



     bravais-lattice index     =            3
     lattice parameter (alat)  =       6.1240  a.u.
     unit-cell volume          =     114.8353 (a.u.)^3
     number of atoms/cell      =            1
     number of atomic types    =            1
     number of electrons       =         3.00
     number of Kohn-Sham states=            6
     kinetic-energy cutoff     =      40.0000  Ry
     charge density cutoff     =     160.0000  Ry
     convergence threshold     =      1.0E-08
     mixing beta               =       0.7000
     number of iterations used =            8  plain     mixing
     Exchange-correlation      =  SLA  PW   PBX  PBC ( 1  4  3  4 0 0)

     celldm(1)=   6.124000  celldm(2)=   0.000000  celldm(3)=   0.000000
     celldm(4)=   0.000000  celldm(5)=   0.000000  celldm(6)=   0.000000

     crystal axes: (cart. coord. in units of alat)
               a(1) = (   0.500000   0.500000   0.500000 )  
               a(2) = (  -0.500000   0.500000   0.500000 )  
               a(3) = (  -0.500000  -0.500000   0.500000 )  

     reciprocal axes: (cart. coord. in units 2 pi/alat)
               b(1) = (  1.000000  0.000000  1.000000 )  
               b(2) = ( -1.000000  1.000000  0.000000 )  
               b(3) = (  0.000000 -1.000000  1.000000 )  


     PseudoPot. # 1 for Al read from file:
     /home/max/quantum_espresso/qe-6.1/pseudo/Al.pbe-n-kjpaw_psl.1.0.0.UPF
     MD5 check sum: dd5adf945272da8132fc805c9e56c2d6
     Pseudo is Projector augmented-wave + core cor, Zval =  3.0
     Generated using "atomic" code by A. Dal Corso  v.5.1
     Shape of augmentation charge: PSQ
     Using radial grid of 1135 points,  6 beta functions with: 
                l(1) =   0
                l(2) =   0
                l(3) =   1
                l(4) =   1
                l(5) =   2
                l(6) =   2
     Q(r) pseudized with 0 coefficients 


     atomic species   valence    mass     pseudopotential
        Al             3.00    26.98200     Al( 1.00)

     48 Sym. Ops., with inversion, found



   Cartesian axes

     site n.     atom                  positions (alat units)
         1           Al  tau(   1) = (   0.0000000   0.0000000   0.0000000  )

     number of k points=   250  gaussian smearing, width (Ry)=  0.0500

     Number of k-points >= 100: set verbosity='high' to print them.

     Dense  grid:     3925 G-vectors     FFT dimensions: (  24,  24,  24)

     Estimated max dynamical RAM per process >       3.58MB

     Estimated total allocated dynamical RAM >      14.30MB

     Initial potential from superposition of free atoms

     starting charge    2.99771, renormalised to    3.00000
     Starting wfc are    4 randomized atomic wfcs +    2 random wfc
     Checking if some PAW data can be deallocated... 

     total cpu time spent up to now is        0.7 secs

     per-process dynamical memory:    11.1 Mb

     Self-consistent Calculation

     iteration #  1     ecut=    40.00 Ry     beta=0.70
     Davidson diagonalization with overlap
     ethr =  1.00E-02,  avg # of iterations =  4.8

     Threshold (ethr) on eigenvalues was too large:
     Diagonalizing with lowered threshold

     Davidson diagonalization with overlap
     ethr =  1.71E-04,  avg # of iterations =  1.9

     total cpu time spent up to now is        2.3 secs

     total energy              =     -39.49929037 Ry
     Harris-Foulkes estimate   =     -39.50061757 Ry
     estimated scf accuracy    <       0.00507267 Ry

     iteration #  2     ecut=    40.00 Ry     beta=0.70
     Davidson diagonalization with overlap
     ethr =  1.69E-04,  avg # of iterations =  1.0

     total cpu time spent up to now is        2.9 secs

     total energy              =     -39.49925950 Ry
     Harris-Foulkes estimate   =     -39.49935093 Ry
     estimated scf accuracy    <       0.00033010 Ry

     iteration #  3     ecut=    40.00 Ry     beta=0.70
     Davidson diagonalization with overlap
     ethr =  1.10E-05,  avg # of iterations =  1.9

     total cpu time spent up to now is        3.5 secs

     total energy              =     -39.49927071 Ry
     Harris-Foulkes estimate   =     -39.49927070 Ry
     estimated scf accuracy    <       0.00000030 Ry

     iteration #  4     ecut=    40.00 Ry     beta=0.70
     Davidson diagonalization with overlap
     ethr =  9.88E-09,  avg # of iterations =  2.8

     total cpu time spent up to now is        4.2 secs

     total energy              =     -39.49927239 Ry
     Harris-Foulkes estimate   =     -39.49927240 Ry
     estimated scf accuracy    <       0.00000002 Ry

     iteration #  5     ecut=    40.00 Ry     beta=0.70
     Davidson diagonalization with overlap
     ethr =  7.60E-10,  avg # of iterations =  1.1

     total cpu time spent up to now is        4.8 secs

     End of self-consistent calculation

     Number of k-points >= 100: set verbosity='high' to print the bands.

     the Fermi energy is     7.5828 ev

!    total energy              =     -39.49927239 Ry
     Harris-Foulkes estimate   =     -39.49927239 Ry
     estimated scf accuracy    <          2.6E-10 Ry

     total all-electron energy =      -485.642054 Ry

     The total energy is the sum of the following terms:

     one-electron contribution =       3.10511269 Ry
     hartree contribution      =       0.00308080 Ry
     xc contribution           =      -2.57346742 Ry
     ewald contribution        =      -5.34831832 Ry
     one-center paw contrib.   =     -34.67845204 Ry
     smearing contrib. (-TS)   =      -0.00722810 Ry

     convergence has been achieved in   5 iterations

     Forces acting on atoms (cartesian axes, Ry/au):

     atom    1 type  1   force =     0.00000000    0.00000000    0.00000000

     Total force =     0.000000     Total SCF correction =     0.000000


     Computing stress (Cartesian axis) and pressure

          total   stress  (Ry/bohr**3)                   (kbar)     P=   -1.31
  -0.00000887   0.00000000  -0.00000000         -1.31      0.00     -0.00
   0.00000000  -0.00000887   0.00000000          0.00     -1.31      0.00
  -0.00000000   0.00000000  -0.00000887         -0.00      0.00     -1.31


     Writing output data file aluminium.bcc.save

     init_run     :      0.43s CPU      0.45s WALL (       1 calls)
     electrons    :      4.01s CPU      4.15s WALL (       1 calls)
     forces       :      0.07s CPU      0.07s WALL (       1 calls)
     stress       :      0.29s CPU      0.29s WALL (       1 calls)

     Called by init_run:
     wfcinit      :      0.19s CPU      0.19s WALL (       1 calls)
     potinit      :      0.09s CPU      0.10s WALL (       1 calls)

     Called by electrons:
     c_bands      :      2.96s CPU      3.06s WALL (       6 calls)
     sum_band     :      0.60s CPU      0.61s WALL (       6 calls)
     v_of_rho     :      0.02s CPU      0.01s WALL (       6 calls)
     newd         :      0.02s CPU      0.03s WALL (       6 calls)
     PAW_pot      :      0.49s CPU      0.53s WALL (       6 calls)
     mix_rho      :      0.00s CPU      0.00s WALL (       6 calls)

     Called by c_bands:
     init_us_2    :      0.27s CPU      0.22s WALL (    3750 calls)
     cegterg      :      2.68s CPU      2.83s WALL (    1500 calls)

     Called by sum_band:
     sum_band:bec :      0.00s CPU      0.01s WALL (    1500 calls)
     addusdens    :      0.04s CPU      0.03s WALL (       6 calls)

     Called by *egterg:
     h_psi        :      2.14s CPU      2.28s WALL (    5132 calls)
     s_psi        :      0.10s CPU      0.10s WALL (    5132 calls)
     g_psi        :      0.01s CPU      0.02s WALL (    3382 calls)
     cdiaghg      :      0.34s CPU      0.29s WALL (    4632 calls)

     Called by h_psi:
     h_psi:pot    :      2.13s CPU      2.27s WALL (    5132 calls)
     h_psi:calbec :      0.10s CPU      0.12s WALL (    5132 calls)
     vloc_psi     :      1.91s CPU      2.04s WALL (    5132 calls)
     add_vuspsi   :      0.09s CPU      0.10s WALL (    5132 calls)

     General routines
     calbec       :      0.15s CPU      0.19s WALL (    7882 calls)
     fft          :      0.01s CPU      0.01s WALL (     105 calls)
     fftw         :      2.12s CPU      2.23s WALL (   57324 calls)
     davcio       :      0.00s CPU      0.00s WALL (     250 calls)

     Parallel routines
     fft_scatter  :      0.42s CPU      0.44s WALL (   57429 calls)

     PWSCF        :     5.26s CPU         5.43s WALL


   This run was terminated on:  14: 2:22  31Oct2017            

=------------------------------------------------------------------------------=
   JOB DONE.
=------------------------------------------------------------------------------=
